MODEL 1
REMARK VINA RESULT:    -8.129      0.000      0.000
REMARK INTER + INTRA:         -13.344
REMARK INTER:                 -12.644
REMARK INTRA:                  -0.700
REMARK UNBOUND:                -0.700
REMARK  Name = 
REMARK  12 active torsions:
REMARK  status: ('A' for Active; 'I' for Inactive)
REMARK    1  A    between atoms: C_3  and  N_26
REMARK    2  A    between atoms: N_7  and  C_10
REMARK    3  A    between atoms: C_11  and  O_25
REMARK    4  A    between atoms: C_12  and  O_24
REMARK    5  A    between atoms: C_13  and  C_15
REMARK    6  A    between atoms: C_15  and  S_16
REMARK    7  A    between atoms: S_16  and  C_17
REMARK    8  A    between atoms: C_17  and  C_18
REMARK    9  A    between atoms: C_18  and  C_19
REMARK   10  A    between atoms: C_19  and  C_20
REMARK   11  A    between atoms: C_19  and  N_23
REMARK   12  A    between atoms: C_20  and  O_22
REMARK                            x       y       z     vdW  Elec       q    Type
REMARK                         _______ _______ _______ _____ _____    ______ ____
ROOT
ATOM      1  C   UNK     1      -2.509  19.052 -33.039  1.00  0.00    +0.253 C 
ATOM      2  C   UNK     1      -1.140  18.401 -32.828  1.00  0.00    +0.195 C 
ATOM      3  C   UNK     1      -1.386  17.022 -33.418  1.00  0.00    +0.177 C 
ATOM      4  C   UNK     1      -2.816  16.720 -32.964  1.00  0.00    +0.162 C 
ATOM      5  O   UNK     1      -3.483  18.003 -32.820  1.00  0.00    -0.347 OA
ENDROOT
BRANCH   1  12
ATOM      6  C   UNK     1      -3.959  23.111 -33.671  1.00  0.00    +0.225 A 
ATOM      7  N   UNK     1      -4.138  23.901 -32.590  1.00  0.00    -0.219 NA
ATOM      8  C   UNK     1      -3.850  23.396 -31.369  1.00  0.00    +0.147 A 
ATOM      9  C   UNK     1      -3.381  22.075 -31.284  1.00  0.00    +0.147 A 
ATOM     10  C   UNK     1      -3.248  21.383 -32.477  1.00  0.00    +0.167 A 
ATOM     11  N   UNK     1      -3.511  21.837 -33.716  1.00  0.00    -0.216 NA
ATOM     12  N   UNK     1      -2.782  20.145 -32.122  1.00  0.00    -0.286 N 
ATOM     13  C   UNK     1      -2.667  20.131 -30.756  1.00  0.00    +0.203 A 
ATOM     14  N   UNK     1      -3.008  21.284 -30.218  1.00  0.00    -0.231 NA
BRANCH   8  15
ATOM     15  N   UNK     1      -4.029  24.202 -30.269  1.00  0.00    -0.341 N 
ATOM     16  H   UNK     1      -3.472  24.024 -29.450  1.00  0.00    +0.144 HD
ATOM     17  H   UNK     1      -4.700  24.956 -30.315  1.00  0.00    +0.144 HD
ENDBRANCH   8  15
ENDBRANCH   1  12
BRANCH   3  18
ATOM     18  O   UNK     1      -1.375  17.071 -34.854  1.00  0.00    -0.386 OA
ATOM     19  H   UNK     1      -2.232  17.471 -35.117  1.00  0.00    +0.210 HD
ENDBRANCH   3  18
BRANCH   2  20
ATOM     20  O   UNK     1      -0.033  19.056 -33.437  1.00  0.00    -0.385 OA
ATOM     21  H   UNK     1       0.748  18.925 -32.860  1.00  0.00    +0.210 HD
ENDBRANCH   2  20
BRANCH   4  22
ATOM     22  C   UNK     1      -2.932  15.971 -31.633  1.00  0.00    +0.103 C 
BRANCH  22  23
ATOM     23  S   UNK     1      -3.368  14.202 -31.784  1.00  0.00    -0.158 S 
BRANCH  23  24
ATOM     24  C   UNK     1      -4.361  14.215 -33.318  1.00  0.00    +0.071 C 
BRANCH  24  25
ATOM     25  C   UNK     1      -3.880  13.369 -34.500  1.00  0.00    +0.040 C 
BRANCH  25  26
ATOM     26  C   UNK     1      -4.959  12.546 -35.224  1.00  0.00    +0.161 C 
BRANCH  26  27
ATOM     27  N   UNK     1      -4.367  11.373 -35.915  1.00  0.00    -0.318 NA
ATOM     28  H   UNK     1      -4.068  11.685 -36.846  1.00  0.00    +0.119 HD
ATOM     29  H   UNK     1      -5.121  10.700 -36.078  1.00  0.00    +0.119 HD
ENDBRANCH  26  27
BRANCH  26  30
ATOM     30  C   UNK     1      -5.740  13.389 -36.248  1.00  0.00    +0.322 C 
ATOM     31  O   UNK     1      -5.522  13.450 -37.450  1.00  0.00    -0.249 OA
BRANCH  30  32
ATOM     32  O   UNK     1      -6.806  14.028 -35.730  1.00  0.00    -0.480 OA
ATOM     33  H   UNK     1      -7.078  14.643 -36.444  1.00  0.00    +0.295 HD
ENDBRANCH  30  32
ENDBRANCH  26  30
ENDBRANCH  25  26
ENDBRANCH  24  25
ENDBRANCH  23  24
ENDBRANCH  22  23
ENDBRANCH   4  22
TORSDOF 12
ENDMDL
MODEL 2
REMARK VINA RESULT:    -7.484      2.091      2.387
REMARK INTER + INTRA:         -12.340
REMARK INTER:                 -11.602
REMARK INTRA:                  -0.738
REMARK UNBOUND:                -0.700
REMARK  Name = 
REMARK  12 active torsions:
REMARK  status: ('A' for Active; 'I' for Inactive)
REMARK    1  A    between atoms: C_3  and  N_26
REMARK    2  A    between atoms: N_7  and  C_10
REMARK    3  A    between atoms: C_11  and  O_25
REMARK    4  A    between atoms: C_12  and  O_24
REMARK    5  A    between atoms: C_13  and  C_15
REMARK    6  A    between atoms: C_15  and  S_16
REMARK    7  A    between atoms: S_16  and  C_17
REMARK    8  A    between atoms: C_17  and  C_18
REMARK    9  A    between atoms: C_18  and  C_19
REMARK   10  A    between atoms: C_19  and  C_20
REMARK   11  A    between atoms: C_19  and  N_23
REMARK   12  A    between atoms: C_20  and  O_22
REMARK                            x       y       z     vdW  Elec       q    Type
REMARK                         _______ _______ _______ _____ _____    ______ ____
ROOT
ATOM      1  C   UNK     1      -2.545  19.014 -32.974  1.00  0.00    +0.253 C 
ATOM      2  C   UNK     1      -1.115  18.474 -32.876  1.00  0.00    +0.195 C 
ATOM      3  C   UNK     1      -1.313  17.051 -33.372  1.00  0.00    +0.177 C 
ATOM      4  C   UNK     1      -2.663  16.673 -32.759  1.00  0.00    +0.162 C 
ATOM      5  O   UNK     1      -3.409  17.911 -32.606  1.00  0.00    -0.347 OA
ENDROOT
BRANCH   1  12
ATOM      6  C   UNK     1      -4.044  23.038 -33.700  1.00  0.00    +0.225 A 
ATOM      7  N   UNK     1      -4.206  23.861 -32.641  1.00  0.00    -0.219 NA
ATOM      8  C   UNK     1      -3.887  23.397 -31.412  1.00  0.00    +0.147 A 
ATOM      9  C   UNK     1      -3.405  22.082 -31.296  1.00  0.00    +0.147 A 
ATOM     10  C   UNK     1      -3.292  21.355 -32.469  1.00  0.00    +0.167 A 
ATOM     11  N   UNK     1      -3.585  21.768 -33.715  1.00  0.00    -0.216 NA
ATOM     12  N   UNK     1      -2.808  20.132 -32.086  1.00  0.00    -0.286 N 
ATOM     13  C   UNK     1      -2.664  20.162 -30.723  1.00  0.00    +0.203 A 
ATOM     14  N   UNK     1      -3.002  21.329 -30.213  1.00  0.00    -0.231 NA
BRANCH   8  15
ATOM     15  N   UNK     1      -4.051  24.236 -30.333  1.00  0.00    -0.341 N 
ATOM     16  H   UNK     1      -4.777  24.024 -29.669  1.00  0.00    +0.144 HD
ATOM     17  H   UNK     1      -3.433  25.027 -30.228  1.00  0.00    +0.144 HD
ENDBRANCH   8  15
ENDBRANCH   1  12
BRANCH   3  18
ATOM     18  O   UNK     1      -1.449  17.023 -34.802  1.00  0.00    -0.386 OA
ATOM     19  H   UNK     1      -0.541  17.119 -35.162  1.00  0.00    +0.210 HD
ENDBRANCH   3  18
BRANCH   2  20
ATOM     20  O   UNK     1      -0.128  19.172 -33.626  1.00  0.00    -0.385 OA
ATOM     21  H   UNK     1       0.373  18.514 -34.149  1.00  0.00    +0.210 HD
ENDBRANCH   2  20
BRANCH   4  22
ATOM     22  C   UNK     1      -2.588  15.991 -31.389  1.00  0.00    +0.103 C 
BRANCH  22  23
ATOM     23  S   UNK     1      -1.540  14.494 -31.333  1.00  0.00    -0.158 S 
BRANCH  23  24
ATOM     24  C   UNK     1      -2.153  13.582 -32.793  1.00  0.00    +0.071 C 
BRANCH  24  25
ATOM     25  C   UNK     1      -2.386  12.074 -32.660  1.00  0.00    +0.040 C 
BRANCH  25  26
ATOM     26  C   UNK     1      -3.834  11.638 -32.380  1.00  0.00    +0.161 C 
BRANCH  26  27
ATOM     27  N   UNK     1      -4.738  12.029 -33.491  1.00  0.00    -0.318 NA
ATOM     28  H   UNK     1      -5.408  12.710 -33.117  1.00  0.00    +0.119 HD
ATOM     29  H   UNK     1      -5.293  11.204 -33.739  1.00  0.00    +0.119 HD
ENDBRANCH  26  27
BRANCH  26  30
ATOM     30  C   UNK     1      -4.373  12.231 -31.065  1.00  0.00    +0.322 C 
ATOM     31  O   UNK     1      -4.084  11.864 -29.935  1.00  0.00    -0.249 OA
BRANCH  30  32
ATOM     32  O   UNK     1      -5.161  13.310 -31.235  1.00  0.00    -0.480 OA
ATOM     33  H   UNK     1      -4.542  14.066 -31.149  1.00  0.00    +0.295 HD
ENDBRANCH  30  32
ENDBRANCH  26  30
ENDBRANCH  25  26
ENDBRANCH  24  25
ENDBRANCH  23  24
ENDBRANCH  22  23
ENDBRANCH   4  22
TORSDOF 12
ENDMDL
MODEL 3
REMARK VINA RESULT:    -6.998      3.800      5.499
REMARK INTER + INTRA:         -11.585
REMARK INTER:                 -10.182
REMARK INTRA:                  -1.403
REMARK UNBOUND:                -0.700
REMARK  Name = 
REMARK  12 active torsions:
REMARK  status: ('A' for Active; 'I' for Inactive)
REMARK    1  A    between atoms: C_3  and  N_26
REMARK    2  A    between atoms: N_7  and  C_10
REMARK    3  A    between atoms: C_11  and  O_25
REMARK    4  A    between atoms: C_12  and  O_24
REMARK    5  A    between atoms: C_13  and  C_15
REMARK    6  A    between atoms: C_15  and  S_16
REMARK    7  A    between atoms: S_16  and  C_17
REMARK    8  A    between atoms: C_17  and  C_18
REMARK    9  A    between atoms: C_18  and  C_19
REMARK   10  A    between atoms: C_19  and  C_20
REMARK   11  A    between atoms: C_19  and  N_23
REMARK   12  A    between atoms: C_20  and  O_22
REMARK                            x       y       z     vdW  Elec       q    Type
REMARK                         _______ _______ _______ _____ _____    ______ ____
ROOT
ATOM      1  C   UNK     1      -2.926  14.547 -31.638  1.00  0.00    +0.253 C 
ATOM      2  C   UNK     1      -3.768  14.003 -32.795  1.00  0.00    +0.195 C 
ATOM      3  C   UNK     1      -4.243  12.685 -32.207  1.00  0.00    +0.177 C 
ATOM      4  C   UNK     1      -3.009  12.203 -31.440  1.00  0.00    +0.162 C 
ATOM      5  O   UNK     1      -2.275  13.395 -31.049  1.00  0.00    -0.347 OA
ENDROOT
BRANCH   1  12
ATOM      6  C   UNK     1      -3.076  18.823 -32.455  1.00  0.00    +0.225 A 
ATOM      7  N   UNK     1      -1.932  19.447 -32.809  1.00  0.00    -0.219 NA
ATOM      8  C   UNK     1      -0.801  18.712 -32.900  1.00  0.00    +0.147 A 
ATOM      9  C   UNK     1      -0.870  17.337 -32.620  1.00  0.00    +0.147 A 
ATOM     10  C   UNK     1      -2.112  16.835 -32.269  1.00  0.00    +0.167 A 
ATOM     11  N   UNK     1      -3.268  17.516 -32.172  1.00  0.00    -0.216 NA
ATOM     12  N   UNK     1      -1.909  15.498 -32.054  1.00  0.00    -0.286 N 
ATOM     13  C   UNK     1      -0.578  15.250 -32.265  1.00  0.00    +0.203 A 
ATOM     14  N   UNK     1       0.078  16.336 -32.622  1.00  0.00    -0.231 NA
BRANCH   8  15
ATOM     15  N   UNK     1       0.365  19.347 -33.263  1.00  0.00    -0.341 N 
ATOM     16  H   UNK     1       0.329  20.020 -34.012  1.00  0.00    +0.144 HD
ATOM     17  H   UNK     1       1.217  19.136 -32.763  1.00  0.00    +0.144 HD
ENDBRANCH   8  15
ENDBRANCH   1  12
BRANCH   3  18
ATOM     18  O   UNK     1      -5.301  12.899 -31.260  1.00  0.00    -0.386 OA
ATOM     19  H   UNK     1      -6.075  13.203 -31.783  1.00  0.00    +0.210 HD
ENDBRANCH   3  18
BRANCH   2  20
ATOM     20  O   UNK     1      -4.851  14.822 -33.221  1.00  0.00    -0.385 OA
ATOM     21  H   UNK     1      -5.400  15.026 -32.436  1.00  0.00    +0.210 HD
ENDBRANCH   2  20
BRANCH   4  22
ATOM     22  C   UNK     1      -2.061  11.299 -32.233  1.00  0.00    +0.103 C 
BRANCH  22  23
ATOM     23  S   UNK     1      -1.879   9.606 -31.567  1.00  0.00    -0.158 S 
BRANCH  23  24
ATOM     24  C   UNK     1      -2.861   8.647 -32.774  1.00  0.00    +0.071 C 
BRANCH  24  25
ATOM     25  C   UNK     1      -4.240   9.181 -33.173  1.00  0.00    +0.040 C 
BRANCH  25  26
ATOM     26  C   UNK     1      -5.431   8.644 -32.362  1.00  0.00    +0.161 C 
BRANCH  26  27
ATOM     27  N   UNK     1      -6.559   8.266 -33.250  1.00  0.00    -0.318 NA
ATOM     28  H   UNK     1      -6.500   7.254 -33.406  1.00  0.00    +0.119 HD
ATOM     29  H   UNK     1      -6.388   8.696 -34.164  1.00  0.00    +0.119 HD
ENDBRANCH  26  27
BRANCH  26  30
ATOM     30  C   UNK     1      -5.932   9.665 -31.324  1.00  0.00    +0.322 C 
ATOM     31  O   UNK     1      -5.397   9.932 -30.257  1.00  0.00    -0.249 OA
BRANCH  30  32
ATOM     32  O   UNK     1      -7.013  10.363 -31.722  1.00  0.00    -0.480 OA
ATOM     33  H   UNK     1      -7.724   9.689 -31.758  1.00  0.00    +0.295 HD
ENDBRANCH  30  32
ENDBRANCH  26  30
ENDBRANCH  25  26
ENDBRANCH  24  25
ENDBRANCH  23  24
ENDBRANCH  22  23
ENDBRANCH   4  22
TORSDOF 12
ENDMDL
MODEL 4
REMARK VINA RESULT:    -6.994      3.187      4.744
REMARK INTER + INTRA:         -11.578
REMARK INTER:                 -10.585
REMARK INTRA:                  -0.993
REMARK UNBOUND:                -0.700
REMARK  Name = 
REMARK  12 active torsions:
REMARK  status: ('A' for Active; 'I' for Inactive)
REMARK    1  A    between atoms: C_3  and  N_26
REMARK    2  A    between atoms: N_7  and  C_10
REMARK    3  A    between atoms: C_11  and  O_25
REMARK    4  A    between atoms: C_12  and  O_24
REMARK    5  A    between atoms: C_13  and  C_15
REMARK    6  A    between atoms: C_15  and  S_16
REMARK    7  A    between atoms: S_16  and  C_17
REMARK    8  A    between atoms: C_17  and  C_18
REMARK    9  A    between atoms: C_18  and  C_19
REMARK   10  A    between atoms: C_19  and  C_20
REMARK   11  A    between atoms: C_19  and  N_23
REMARK   12  A    between atoms: C_20  and  O_22
REMARK                            x       y       z     vdW  Elec       q    Type
REMARK                         _______ _______ _______ _____ _____    ______ ____
ROOT
ATOM      1  C   UNK     1      -2.534  14.687 -31.621  1.00  0.00    +0.253 C 
ATOM      2  C   UNK     1      -3.501  14.473 -32.788  1.00  0.00    +0.195 C 
ATOM      3  C   UNK     1      -4.115  13.136 -32.408  1.00  0.00    +0.177 C 
ATOM      4  C   UNK     1      -2.918  12.375 -31.834  1.00  0.00    +0.162 C 
ATOM      5  O   UNK     1      -2.012  13.376 -31.296  1.00  0.00    -0.347 OA
ENDROOT
BRANCH   1  12
ATOM      6  C   UNK     1      -2.317  18.975 -32.358  1.00  0.00    +0.225 A 
ATOM      7  N   UNK     1      -1.108  19.520 -32.611  1.00  0.00    -0.219 NA
ATOM      8  C   UNK     1      -0.028  18.707 -32.631  1.00  0.00    +0.147 A 
ATOM      9  C   UNK     1      -0.216  17.336 -32.386  1.00  0.00    +0.147 A 
ATOM     10  C   UNK     1      -1.514  16.920 -32.141  1.00  0.00    +0.167 A 
ATOM     11  N   UNK     1      -2.623  17.681 -32.118  1.00  0.00    -0.216 NA
ATOM     12  N   UNK     1      -1.423  15.569 -31.939  1.00  0.00    -0.286 N 
ATOM     13  C   UNK     1      -0.100  15.229 -32.053  1.00  0.00    +0.203 A 
ATOM     14  N   UNK     1       0.657  16.269 -32.336  1.00  0.00    -0.231 NA
BRANCH   8  15
ATOM     15  N   UNK     1       1.204  19.262 -32.891  1.00  0.00    -0.341 N 
ATOM     16  H   UNK     1       1.346  20.235 -32.674  1.00  0.00    +0.144 HD
ATOM     17  H   UNK     1       1.935  18.680 -33.276  1.00  0.00    +0.144 HD
ENDBRANCH   8  15
ENDBRANCH   1  12
BRANCH   3  18
ATOM     18  O   UNK     1      -5.084  13.297 -31.360  1.00  0.00    -0.386 OA
ATOM     19  H   UNK     1      -5.903  13.617 -31.796  1.00  0.00    +0.210 HD
ENDBRANCH   3  18
BRANCH   2  20
ATOM     20  O   UNK     1      -4.487  15.482 -32.979  1.00  0.00    -0.385 OA
ATOM     21  H   UNK     1      -5.313  15.178 -32.550  1.00  0.00    +0.210 HD
ENDBRANCH   2  20
BRANCH   4  22
ATOM     22  C   UNK     1      -2.141  11.525 -32.845  1.00  0.00    +0.103 C 
BRANCH  22  23
ATOM     23  S   UNK     1      -3.159  10.338 -33.792  1.00  0.00    -0.158 S 
BRANCH  23  24
ATOM     24  C   UNK     1      -3.508  11.303 -35.304  1.00  0.00    +0.071 C 
BRANCH  24  25
ATOM     25  C   UNK     1      -4.919  11.866 -35.495  1.00  0.00    +0.040 C 
BRANCH  25  26
ATOM     26  C   UNK     1      -5.037  13.094 -36.413  1.00  0.00    +0.161 C 
BRANCH  26  27
ATOM     27  N   UNK     1      -5.305  14.327 -35.631  1.00  0.00    -0.318 NA
ATOM     28  H   UNK     1      -6.304  14.328 -35.395  1.00  0.00    +0.119 HD
ATOM     29  H   UNK     1      -5.170  15.124 -36.260  1.00  0.00    +0.119 HD
ENDBRANCH  26  27
BRANCH  26  30
ATOM     30  C   UNK     1      -6.142  12.921 -37.472  1.00  0.00    +0.322 C 
ATOM     31  O   UNK     1      -6.275  11.970 -38.229  1.00  0.00    -0.249 OA
BRANCH  30  32
ATOM     32  O   UNK     1      -7.071  13.896 -37.455  1.00  0.00    -0.480 OA
ATOM     33  H   UNK     1      -7.143  14.164 -38.395  1.00  0.00    +0.295 HD
ENDBRANCH  30  32
ENDBRANCH  26  30
ENDBRANCH  25  26
ENDBRANCH  24  25
ENDBRANCH  23  24
ENDBRANCH  22  23
ENDBRANCH   4  22
TORSDOF 12
ENDMDL
MODEL 5
REMARK VINA RESULT:    -6.853      2.886      4.709
REMARK INTER + INTRA:         -11.359
REMARK INTER:                 -10.395
REMARK INTRA:                  -0.963
REMARK UNBOUND:                -0.700
REMARK  Name = 
REMARK  12 active torsions:
REMARK  status: ('A' for Active; 'I' for Inactive)
REMARK    1  A    between atoms: C_3  and  N_26
REMARK    2  A    between atoms: N_7  and  C_10
REMARK    3  A    between atoms: C_11  and  O_25
REMARK    4  A    between atoms: C_12  and  O_24
REMARK    5  A    between atoms: C_13  and  C_15
REMARK    6  A    between atoms: C_15  and  S_16
REMARK    7  A    between atoms: S_16  and  C_17
REMARK    8  A    between atoms: C_17  and  C_18
REMARK    9  A    between atoms: C_18  and  C_19
REMARK   10  A    between atoms: C_19  and  C_20
REMARK   11  A    between atoms: C_19  and  N_23
REMARK   12  A    between atoms: C_20  and  O_22
REMARK                            x       y       z     vdW  Elec       q    Type
REMARK                         _______ _______ _______ _____ _____    ______ ____
ROOT
ATOM      1  C   UNK     1      -2.647  18.726 -32.981  1.00  0.00    +0.253 C 
ATOM      2  C   UNK     1      -1.218  18.177 -33.002  1.00  0.00    +0.195 C 
ATOM      3  C   UNK     1      -1.470  16.748 -33.457  1.00  0.00    +0.177 C 
ATOM      4  C   UNK     1      -2.762  16.390 -32.720  1.00  0.00    +0.162 C 
ATOM      5  O   UNK     1      -3.483  17.636 -32.521  1.00  0.00    -0.347 OA
ENDROOT
BRANCH   1  12
ATOM      6  C   UNK     1      -4.080  22.784 -33.654  1.00  0.00    +0.225 A 
ATOM      7  N   UNK     1      -4.152  23.620 -32.596  1.00  0.00    -0.219 NA
ATOM      8  C   UNK     1      -3.768  23.159 -31.384  1.00  0.00    +0.147 A 
ATOM      9  C   UNK     1      -3.315  21.832 -31.285  1.00  0.00    +0.147 A 
ATOM     10  C   UNK     1      -3.297  21.092 -32.455  1.00  0.00    +0.167 A 
ATOM     11  N   UNK     1      -3.658  21.501 -33.684  1.00  0.00    -0.216 NA
ATOM     12  N   UNK     1      -2.822  19.860 -32.090  1.00  0.00    -0.286 N 
ATOM     13  C   UNK     1      -2.590  19.898 -30.740  1.00  0.00    +0.203 A 
ATOM     14  N   UNK     1      -2.864  21.078 -30.222  1.00  0.00    -0.231 NA
BRANCH   8  15
ATOM     15  N   UNK     1      -3.838  24.012 -30.307  1.00  0.00    -0.341 N 
ATOM     16  H   UNK     1      -3.834  23.614 -29.381  1.00  0.00    +0.144 HD
ATOM     17  H   UNK     1      -3.878  25.008 -30.469  1.00  0.00    +0.144 HD
ENDBRANCH   8  15
ENDBRANCH   1  12
BRANCH   3  18
ATOM     18  O   UNK     1      -1.733  16.700 -34.868  1.00  0.00    -0.386 OA
ATOM     19  H   UNK     1      -0.863  16.555 -35.301  1.00  0.00    +0.210 HD
ENDBRANCH   3  18
BRANCH   2  20
ATOM     20  O   UNK     1      -0.298  18.855 -33.848  1.00  0.00    -0.385 OA
ATOM     21  H   UNK     1      -0.151  19.749 -33.475  1.00  0.00    +0.210 HD
ENDBRANCH   2  20
BRANCH   4  22
ATOM     22  C   UNK     1      -2.570  15.727 -31.353  1.00  0.00    +0.103 C 
BRANCH  22  23
ATOM     23  S   UNK     1      -1.654  14.145 -31.388  1.00  0.00    -0.158 S 
BRANCH  23  24
ATOM     24  C   UNK     1      -0.564  14.339 -29.934  1.00  0.00    +0.071 C 
BRANCH  24  25
ATOM     25  C   UNK     1       0.902  14.713 -30.172  1.00  0.00    +0.040 C 
BRANCH  25  26
ATOM     26  C   UNK     1       1.147  15.960 -31.038  1.00  0.00    +0.161 C 
BRANCH  26  27
ATOM     27  N   UNK     1       1.780  15.600 -32.332  1.00  0.00    -0.318 NA
ATOM     28  H   UNK     1       1.885  16.465 -32.873  1.00  0.00    +0.119 HD
ATOM     29  H   UNK     1       1.108  15.029 -32.854  1.00  0.00    +0.119 HD
ENDBRANCH  26  27
BRANCH  26  30
ATOM     30  C   UNK     1       2.029  16.999 -30.321  1.00  0.00    +0.322 C 
ATOM     31  O   UNK     1       3.209  17.224 -30.549  1.00  0.00    -0.249 OA
BRANCH  30  32
ATOM     32  O   UNK     1       1.363  17.762 -29.434  1.00  0.00    -0.480 OA
ATOM     33  H   UNK     1       0.609  17.196 -29.161  1.00  0.00    +0.295 HD
ENDBRANCH  30  32
ENDBRANCH  26  30
ENDBRANCH  25  26
ENDBRANCH  24  25
ENDBRANCH  23  24
ENDBRANCH  22  23
ENDBRANCH   4  22
TORSDOF 12
ENDMDL
MODEL 6
REMARK VINA RESULT:    -6.585      4.638      6.193
REMARK INTER + INTRA:         -10.943
REMARK INTER:                  -9.552
REMARK INTRA:                  -1.390
REMARK UNBOUND:                -0.700
REMARK  Name = 
REMARK  12 active torsions:
REMARK  status: ('A' for Active; 'I' for Inactive)
REMARK    1  A    between atoms: C_3  and  N_26
REMARK    2  A    between atoms: N_7  and  C_10
REMARK    3  A    between atoms: C_11  and  O_25
REMARK    4  A    between atoms: C_12  and  O_24
REMARK    5  A    between atoms: C_13  and  C_15
REMARK    6  A    between atoms: C_15  and  S_16
REMARK    7  A    between atoms: S_16  and  C_17
REMARK    8  A    between atoms: C_17  and  C_18
REMARK    9  A    between atoms: C_18  and  C_19
REMARK   10  A    between atoms: C_19  and  C_20
REMARK   11  A    between atoms: C_19  and  N_23
REMARK   12  A    between atoms: C_20  and  O_22
REMARK                            x       y       z     vdW  Elec       q    Type
REMARK                         _______ _______ _______ _____ _____    ______ ____
ROOT
ATOM      1  C   UNK     1      -2.871  14.358 -31.521  1.00  0.00    +0.253 C 
ATOM      2  C   UNK     1      -3.671  13.726 -32.663  1.00  0.00    +0.195 C 
ATOM      3  C   UNK     1      -4.094  12.414 -32.021  1.00  0.00    +0.177 C 
ATOM      4  C   UNK     1      -2.851  12.024 -31.218  1.00  0.00    +0.162 C 
ATOM      5  O   UNK     1      -2.178  13.265 -30.871  1.00  0.00    -0.347 OA
ENDROOT
BRANCH   1  12
ATOM      6  C   UNK     1      -3.178  18.611 -32.411  1.00  0.00    +0.225 A 
ATOM      7  N   UNK     1      -2.060  19.267 -32.790  1.00  0.00    -0.219 NA
ATOM      8  C   UNK     1      -0.905  18.570 -32.882  1.00  0.00    +0.147 A 
ATOM      9  C   UNK     1      -0.924  17.198 -32.577  1.00  0.00    +0.147 A 
ATOM     10  C   UNK     1      -2.144  16.661 -32.202  1.00  0.00    +0.167 A 
ATOM     11  N   UNK     1      -3.322  17.304 -32.102  1.00  0.00    -0.216 NA
ATOM     12  N   UNK     1      -1.893  15.336 -31.966  1.00  0.00    -0.286 N 
ATOM     13  C   UNK     1      -0.556  15.130 -32.188  1.00  0.00    +0.203 A 
ATOM     14  N   UNK     1       0.058  16.230 -32.572  1.00  0.00    -0.231 NA
BRANCH   8  15
ATOM     15  N   UNK     1       0.234  19.238 -33.270  1.00  0.00    -0.341 N 
ATOM     16  H   UNK     1       0.598  19.064 -34.193  1.00  0.00    +0.144 HD
ATOM     17  H   UNK     1       0.663  19.891 -32.631  1.00  0.00    +0.144 HD
ENDBRANCH   8  15
ENDBRANCH   1  12
BRANCH   3  18
ATOM     18  O   UNK     1      -5.175  12.621 -31.099  1.00  0.00    -0.386 OA
ATOM     19  H   UNK     1      -5.871  13.098 -31.601  1.00  0.00    +0.210 HD
ENDBRANCH   3  18
BRANCH   2  20
ATOM     20  O   UNK     1      -4.783  14.474 -33.139  1.00  0.00    -0.385 OA
ATOM     21  H   UNK     1      -4.453  15.345 -33.439  1.00  0.00    +0.210 HD
ENDBRANCH   2  20
BRANCH   4  22
ATOM     22  C   UNK     1      -1.851  11.130 -31.957  1.00  0.00    +0.103 C 
BRANCH  22  23
ATOM     23  S   UNK     1      -1.649   9.456 -31.251  1.00  0.00    -0.158 S 
BRANCH  23  24
ATOM     24  C   UNK     1      -3.332   8.779 -31.469  1.00  0.00    +0.071 C 
BRANCH  24  25
ATOM     25  C   UNK     1      -4.009   8.118 -30.265  1.00  0.00    +0.040 C 
BRANCH  25  26
ATOM     26  C   UNK     1      -5.279   8.810 -29.741  1.00  0.00    +0.161 C 
BRANCH  26  27
ATOM     27  N   UNK     1      -5.934   9.609 -30.807  1.00  0.00    -0.318 NA
ATOM     28  H   UNK     1      -6.928   9.687 -30.564  1.00  0.00    +0.119 HD
ATOM     29  H   UNK     1      -5.903   9.054 -31.668  1.00  0.00    +0.119 HD
ENDBRANCH  26  27
BRANCH  26  30
ATOM     30  C   UNK     1      -4.985   9.726 -28.538  1.00  0.00    +0.322 C 
ATOM     31  O   UNK     1      -4.441  10.820 -28.580  1.00  0.00    -0.249 OA
BRANCH  30  32
ATOM     32  O   UNK     1      -5.475   9.267 -27.371  1.00  0.00    -0.480 OA
ATOM     33  H   UNK     1      -4.674   8.999 -26.872  1.00  0.00    +0.295 HD
ENDBRANCH  30  32
ENDBRANCH  26  30
ENDBRANCH  25  26
ENDBRANCH  24  25
ENDBRANCH  23  24
ENDBRANCH  22  23
ENDBRANCH   4  22
TORSDOF 12
ENDMDL
MODEL 7
REMARK VINA RESULT:    -6.533      6.329      8.255
REMARK INTER + INTRA:         -10.861
REMARK INTER:                  -9.729
REMARK INTRA:                  -1.132
REMARK UNBOUND:                -0.700
REMARK  Name = 
REMARK  12 active torsions:
REMARK  status: ('A' for Active; 'I' for Inactive)
REMARK    1  A    between atoms: C_3  and  N_26
REMARK    2  A    between atoms: N_7  and  C_10
REMARK    3  A    between atoms: C_11  and  O_25
REMARK    4  A    between atoms: C_12  and  O_24
REMARK    5  A    between atoms: C_13  and  C_15
REMARK    6  A    between atoms: C_15  and  S_16
REMARK    7  A    between atoms: S_16  and  C_17
REMARK    8  A    between atoms: C_17  and  C_18
REMARK    9  A    between atoms: C_18  and  C_19
REMARK   10  A    between atoms: C_19  and  C_20
REMARK   11  A    between atoms: C_19  and  N_23
REMARK   12  A    between atoms: C_20  and  O_22
REMARK                            x       y       z     vdW  Elec       q    Type
REMARK                         _______ _______ _______ _____ _____    ______ ____
ROOT
ATOM      1  C   UNK     1      -4.364  10.140 -31.893  1.00  0.00    +0.253 C 
ATOM      2  C   UNK     1      -5.759  10.086 -32.520  1.00  0.00    +0.195 C 
ATOM      3  C   UNK     1      -5.763   8.674 -33.084  1.00  0.00    +0.177 C 
ATOM      4  C   UNK     1      -4.332   8.522 -33.602  1.00  0.00    +0.162 C 
ATOM      5  O   UNK     1      -3.502   9.390 -32.783  1.00  0.00    -0.347 OA
ENDROOT
BRANCH   1  12
ATOM      6  C   UNK     1      -0.651  11.677 -30.213  1.00  0.00    +0.225 A 
ATOM      7  N   UNK     1      -0.435  13.010 -30.253  1.00  0.00    -0.219 NA
ATOM      8  C   UNK     1      -1.384  13.799 -30.804  1.00  0.00    +0.147 A 
ATOM      9  C   UNK     1      -2.547  13.195 -31.310  1.00  0.00    +0.147 A 
ATOM     10  C   UNK     1      -2.631  11.817 -31.201  1.00  0.00    +0.167 A 
ATOM     11  N   UNK     1      -1.724  10.986 -30.656  1.00  0.00    -0.216 NA
ATOM     12  N   UNK     1      -3.838  11.487 -31.756  1.00  0.00    -0.286 N 
ATOM     13  C   UNK     1      -4.420  12.652 -32.184  1.00  0.00    +0.203 A 
ATOM     14  N   UNK     1      -3.674  13.706 -31.919  1.00  0.00    -0.231 NA
BRANCH   8  15
ATOM     15  N   UNK     1      -1.164  15.157 -30.843  1.00  0.00    -0.341 N 
ATOM     16  H   UNK     1      -0.579  15.567 -30.134  1.00  0.00    +0.144 HD
ATOM     17  H   UNK     1      -1.580  15.701 -31.585  1.00  0.00    +0.144 HD
ENDBRANCH   8  15
ENDBRANCH   1  12
BRANCH   3  18
ATOM     18  O   UNK     1      -5.965   7.707 -32.042  1.00  0.00    -0.386 OA
ATOM     19  H   UNK     1      -6.379   8.195 -31.297  1.00  0.00    +0.210 HD
ENDBRANCH   3  18
BRANCH   2  20
ATOM     20  O   UNK     1      -6.852  10.315 -31.639  1.00  0.00    -0.385 OA
ATOM     21  H   UNK     1      -6.541  10.148 -30.725  1.00  0.00    +0.210 HD
ENDBRANCH   2  20
BRANCH   4  22
ATOM     22  C   UNK     1      -4.125   8.912 -35.069  1.00  0.00    +0.103 C 
BRANCH  22  23
ATOM     23  S   UNK     1      -2.592   9.850 -35.405  1.00  0.00    -0.158 S 
BRANCH  23  24
ATOM     24  C   UNK     1      -3.230  11.561 -35.451  1.00  0.00    +0.071 C 
BRANCH  24  25
ATOM     25  C   UNK     1      -4.714  11.774 -35.762  1.00  0.00    +0.040 C 
BRANCH  25  26
ATOM     26  C   UNK     1      -5.085  13.129 -36.387  1.00  0.00    +0.161 C 
BRANCH  26  27
ATOM     27  N   UNK     1      -5.395  14.136 -35.342  1.00  0.00    -0.318 NA
ATOM     28  H   UNK     1      -6.415  14.244 -35.313  1.00  0.00    +0.119 HD
ATOM     29  H   UNK     1      -5.032  15.037 -35.666  1.00  0.00    +0.119 HD
ENDBRANCH  26  27
BRANCH  26  30
ATOM     30  C   UNK     1      -6.285  13.016 -37.345  1.00  0.00    +0.322 C 
ATOM     31  O   UNK     1      -7.187  13.832 -37.473  1.00  0.00    -0.249 OA
BRANCH  30  32
ATOM     32  O   UNK     1      -6.235  11.943 -38.157  1.00  0.00    -0.480 OA
ATOM     33  H   UNK     1      -5.393  11.505 -37.912  1.00  0.00    +0.295 HD
ENDBRANCH  30  32
ENDBRANCH  26  30
ENDBRANCH  25  26
ENDBRANCH  24  25
ENDBRANCH  23  24
ENDBRANCH  22  23
ENDBRANCH   4  22
TORSDOF 12
ENDMDL
MODEL 8
REMARK VINA RESULT:    -6.495      3.747      5.566
REMARK INTER + INTRA:         -10.802
REMARK INTER:                  -9.826
REMARK INTRA:                  -0.977
REMARK UNBOUND:                -0.700
REMARK  Name = 
REMARK  12 active torsions:
REMARK  status: ('A' for Active; 'I' for Inactive)
REMARK    1  A    between atoms: C_3  and  N_26
REMARK    2  A    between atoms: N_7  and  C_10
REMARK    3  A    between atoms: C_11  and  O_25
REMARK    4  A    between atoms: C_12  and  O_24
REMARK    5  A    between atoms: C_13  and  C_15
REMARK    6  A    between atoms: C_15  and  S_16
REMARK    7  A    between atoms: S_16  and  C_17
REMARK    8  A    between atoms: C_17  and  C_18
REMARK    9  A    between atoms: C_18  and  C_19
REMARK   10  A    between atoms: C_19  and  C_20
REMARK   11  A    between atoms: C_19  and  N_23
REMARK   12  A    between atoms: C_20  and  O_22
REMARK                            x       y       z     vdW  Elec       q    Type
REMARK                         _______ _______ _______ _____ _____    ______ ____
ROOT
ATOM      1  C   UNK     1      -2.886  14.114 -31.590  1.00  0.00    +0.253 C 
ATOM      2  C   UNK     1      -3.718  13.541 -32.740  1.00  0.00    +0.195 C 
ATOM      3  C   UNK     1      -4.128  12.200 -32.154  1.00  0.00    +0.177 C 
ATOM      4  C   UNK     1      -2.865  11.768 -31.405  1.00  0.00    +0.162 C 
ATOM      5  O   UNK     1      -2.179  12.988 -31.015  1.00  0.00    -0.347 OA
ENDROOT
BRANCH   1  12
ATOM      6  C   UNK     1      -3.247  18.370 -32.448  1.00  0.00    +0.225 A 
ATOM      7  N   UNK     1      -2.135  19.046 -32.805  1.00  0.00    -0.219 NA
ATOM      8  C   UNK     1      -0.968  18.368 -32.886  1.00  0.00    +0.147 A 
ATOM      9  C   UNK     1      -0.969  16.994 -32.593  1.00  0.00    +0.147 A 
ATOM     10  C   UNK     1      -2.186  16.434 -32.240  1.00  0.00    +0.167 A 
ATOM     11  N   UNK     1      -3.375  17.057 -32.153  1.00  0.00    -0.216 NA
ATOM     12  N   UNK     1      -1.917  15.111 -32.012  1.00  0.00    -0.286 N 
ATOM     13  C   UNK     1      -0.574  14.928 -32.217  1.00  0.00    +0.203 A 
ATOM     14  N   UNK     1       0.028  16.042 -32.583  1.00  0.00    -0.231 NA
BRANCH   8  15
ATOM     15  N   UNK     1       0.166  19.058 -33.251  1.00  0.00    -0.341 N 
ATOM     16  H   UNK     1       0.082  20.039 -33.459  1.00  0.00    +0.144 HD
ATOM     17  H   UNK     1       1.049  18.569 -33.287  1.00  0.00    +0.144 HD
ENDBRANCH   8  15
ENDBRANCH   1  12
BRANCH   3  18
ATOM     18  O   UNK     1      -5.183  12.362 -31.193  1.00  0.00    -0.386 OA
ATOM     19  H   UNK     1      -5.921  12.796 -31.673  1.00  0.00    +0.210 HD
ENDBRANCH   3  18
BRANCH   2  20
ATOM     20  O   UNK     1      -4.841  14.314 -33.148  1.00  0.00    -0.385 OA
ATOM     21  H   UNK     1      -4.507  15.159 -33.514  1.00  0.00    +0.210 HD
ENDBRANCH   2  20
BRANCH   4  22
ATOM     22  C   UNK     1      -1.888  10.910 -32.215  1.00  0.00    +0.103 C 
BRANCH  22  23
ATOM     23  S   UNK     1      -1.771   9.167 -31.679  1.00  0.00    -0.158 S 
BRANCH  23  24
ATOM     24  C   UNK     1      -2.409   8.301 -33.156  1.00  0.00    +0.071 C 
BRANCH  24  25
ATOM     25  C   UNK     1      -3.865   7.829 -33.148  1.00  0.00    +0.040 C 
BRANCH  25  26
ATOM     26  C   UNK     1      -4.905   8.842 -33.654  1.00  0.00    +0.161 C 
BRANCH  26  27
ATOM     27  N   UNK     1      -6.288   8.345 -33.442  1.00  0.00    -0.318 NA
ATOM     28  H   UNK     1      -6.462   8.345 -32.431  1.00  0.00    +0.119 HD
ATOM     29  H   UNK     1      -6.307   7.360 -33.725  1.00  0.00    +0.119 HD
ENDBRANCH  26  27
BRANCH  26  30
ATOM     30  C   UNK     1      -4.715   9.171 -35.146  1.00  0.00    +0.322 C 
ATOM     31  O   UNK     1      -4.651  10.289 -35.638  1.00  0.00    -0.249 OA
BRANCH  30  32
ATOM     32  O   UNK     1      -4.517   8.088 -35.922  1.00  0.00    -0.480 OA
ATOM     33  H   UNK     1      -4.935   7.360 -35.416  1.00  0.00    +0.295 HD
ENDBRANCH  30  32
ENDBRANCH  26  30
ENDBRANCH  25  26
ENDBRANCH  24  25
ENDBRANCH  23  24
ENDBRANCH  22  23
ENDBRANCH   4  22
TORSDOF 12
ENDMDL
MODEL 9
REMARK VINA RESULT:    -6.408      6.618     10.571
REMARK INTER + INTRA:         -10.667
REMARK INTER:                  -9.273
REMARK INTRA:                  -1.395
REMARK UNBOUND:                -0.700
REMARK  Name = 
REMARK  12 active torsions:
REMARK  status: ('A' for Active; 'I' for Inactive)
REMARK    1  A    between atoms: C_3  and  N_26
REMARK    2  A    between atoms: N_7  and  C_10
REMARK    3  A    between atoms: C_11  and  O_25
REMARK    4  A    between atoms: C_12  and  O_24
REMARK    5  A    between atoms: C_13  and  C_15
REMARK    6  A    between atoms: C_15  and  S_16
REMARK    7  A    between atoms: S_16  and  C_17
REMARK    8  A    between atoms: C_17  and  C_18
REMARK    9  A    between atoms: C_18  and  C_19
REMARK   10  A    between atoms: C_19  and  C_20
REMARK   11  A    between atoms: C_19  and  N_23
REMARK   12  A    between atoms: C_20  and  O_22
REMARK                            x       y       z     vdW  Elec       q    Type
REMARK                         _______ _______ _______ _____ _____    ______ ____
ROOT
ATOM      1  C   UNK     1      -2.177  23.477 -28.476  1.00  0.00    +0.253 C 
ATOM      2  C   UNK     1      -0.647  23.519 -28.496  1.00  0.00    +0.195 C 
ATOM      3  C   UNK     1      -0.362  24.148 -27.141  1.00  0.00    +0.177 C 
ATOM      4  C   UNK     1      -1.477  25.189 -27.020  1.00  0.00    +0.162 C 
ATOM      5  O   UNK     1      -2.597  24.687 -27.800  1.00  0.00    -0.347 OA
ENDROOT
BRANCH   1  12
ATOM      6  C   UNK     1      -2.737  20.266 -31.365  1.00  0.00    +0.225 A 
ATOM      7  N   UNK     1      -3.364  20.553 -32.526  1.00  0.00    -0.219 NA
ATOM      8  C   UNK     1      -3.779  21.822 -32.737  1.00  0.00    +0.147 A 
ATOM      9  C   UNK     1      -3.539  22.780 -31.737  1.00  0.00    +0.147 A 
ATOM     10  C   UNK     1      -2.885  22.340 -30.598  1.00  0.00    +0.167 A 
ATOM     11  N   UNK     1      -2.444  21.096 -30.341  1.00  0.00    -0.216 NA
ATOM     12  N   UNK     1      -2.776  23.447 -29.799  1.00  0.00    -0.286 N 
ATOM     13  C   UNK     1      -3.369  24.489 -30.466  1.00  0.00    +0.203 A 
ATOM     14  N   UNK     1      -3.828  24.125 -31.645  1.00  0.00    -0.231 NA
BRANCH   8  15
ATOM     15  N   UNK     1      -4.416  22.115 -33.921  1.00  0.00    -0.341 N 
ATOM     16  H   UNK     1      -3.999  21.795 -34.780  1.00  0.00    +0.144 HD
ATOM     17  H   UNK     1      -5.287  22.627 -33.897  1.00  0.00    +0.144 HD
ENDBRANCH   8  15
ENDBRANCH   1  12
BRANCH   3  18
ATOM     18  O   UNK     1      -0.531  23.188 -26.086  1.00  0.00    -0.386 OA
ATOM     19  H   UNK     1      -1.097  23.624 -25.412  1.00  0.00    +0.210 HD
ENDBRANCH   3  18
BRANCH   2  20
ATOM     20  O   UNK     1       0.013  22.269 -28.657  1.00  0.00    -0.385 OA
ATOM     21  H   UNK     1       0.917  22.357 -28.290  1.00  0.00    +0.210 HD
ENDBRANCH   2  20
BRANCH   4  22
ATOM     22  C   UNK     1      -1.124  26.586 -27.539  1.00  0.00    +0.103 C 
BRANCH  22  23
ATOM     23  S   UNK     1      -2.354  27.882 -27.153  1.00  0.00    -0.158 S 
BRANCH  23  24
ATOM     24  C   UNK     1      -2.897  27.365 -25.487  1.00  0.00    +0.071 C 
BRANCH  24  25
ATOM     25  C   UNK     1      -4.270  26.703 -25.344  1.00  0.00    +0.040 C 
BRANCH  25  26
ATOM     26  C   UNK     1      -4.406  25.671 -24.212  1.00  0.00    +0.161 C 
BRANCH  26  27
ATOM     27  N   UNK     1      -3.880  26.206 -22.931  1.00  0.00    -0.318 NA
ATOM     28  H   UNK     1      -2.941  26.575 -23.116  1.00  0.00    +0.119 HD
ATOM     29  H   UNK     1      -3.745  25.412 -22.299  1.00  0.00    +0.119 HD
ENDBRANCH  26  27
BRANCH  26  30
ATOM     30  C   UNK     1      -3.681  24.353 -24.539  1.00  0.00    +0.322 C 
ATOM     31  O   UNK     1      -2.583  24.010 -24.124  1.00  0.00    -0.249 OA
BRANCH  30  32
ATOM     32  O   UNK     1      -4.409  23.500 -25.283  1.00  0.00    -0.480 OA
ATOM     33  H   UNK     1      -3.841  23.330 -26.065  1.00  0.00    +0.295 HD
ENDBRANCH  30  32
ENDBRANCH  26  30
ENDBRANCH  25  26
ENDBRANCH  24  25
ENDBRANCH  23  24
ENDBRANCH  22  23
ENDBRANCH   4  22
TORSDOF 12
ENDMDL
