MODEL 1
REMARK VINA RESULT:    -7.982      0.000      0.000
REMARK INTER + INTRA:         -13.104
REMARK INTER:                 -12.415
REMARK INTRA:                  -0.688
REMARK UNBOUND:                -0.688
REMARK  Name = 
REMARK  12 active torsions:
REMARK  status: ('A' for Active; 'I' for Inactive)
REMARK    1  A    between atoms: C_3  and  N_26
REMARK    2  A    between atoms: N_7  and  C_10
REMARK    3  A    between atoms: C_11  and  O_25
REMARK    4  A    between atoms: C_12  and  O_24
REMARK    5  A    between atoms: C_13  and  C_15
REMARK    6  A    between atoms: C_15  and  S_16
REMARK    7  A    between atoms: S_16  and  C_17
REMARK    8  A    between atoms: C_17  and  C_18
REMARK    9  A    between atoms: C_18  and  C_19
REMARK   10  A    between atoms: C_19  and  C_20
REMARK   11  A    between atoms: C_19  and  N_23
REMARK   12  A    between atoms: C_20  and  O_22
REMARK                            x       y       z     vdW  Elec       q    Type
REMARK                         _______ _______ _______ _____ _____    ______ ____
ROOT
ATOM      1  C   UNK     1      -2.516  18.990 -33.041  1.00  0.00    +0.253 C 
ATOM      2  C   UNK     1      -1.159  18.314 -32.829  1.00  0.00    +0.195 C 
ATOM      3  C   UNK     1      -1.425  16.945 -33.435  1.00  0.00    +0.177 C 
ATOM      4  C   UNK     1      -2.862  16.663 -32.992  1.00  0.00    +0.162 C 
ATOM      5  O   UNK     1      -3.509  17.955 -32.838  1.00  0.00    -0.347 OA
ENDROOT
BRANCH   1  12
ATOM      6  C   UNK     1      -4.007  23.041 -33.624  1.00  0.00    +0.225 A 
ATOM      7  N   UNK     1      -4.166  23.826 -32.537  1.00  0.00    -0.219 NA
ATOM      8  C   UNK     1      -3.848  23.319 -31.325  1.00  0.00    +0.147 A 
ATOM      9  C   UNK     1      -3.368  22.000 -31.256  1.00  0.00    +0.147 A 
ATOM     10  C   UNK     1      -3.258  21.314 -32.453  1.00  0.00    +0.167 A 
ATOM     11  N   UNK     1      -3.551  21.771 -33.684  1.00  0.00    -0.216 NA
ATOM     12  N   UNK     1      -2.776  20.078 -32.114  1.00  0.00    -0.286 N 
ATOM     13  C   UNK     1      -2.630  20.059 -30.751  1.00  0.00    +0.203 A 
ATOM     14  N   UNK     1      -2.966  21.208 -30.200  1.00  0.00    -0.231 NA
BRANCH   8  15
ATOM     15  N   UNK     1      -4.008  24.120 -30.218  1.00  0.00    -0.341 N 
ATOM     16  H   UNK     1      -4.560  24.957 -30.309  1.00  0.00    +0.144 HD
ATOM     17  H   UNK     1      -3.584  23.842 -29.344  1.00  0.00    +0.144 HD
ENDBRANCH   8  15
ENDBRANCH   1  12
BRANCH   3  18
ATOM     18  O   UNK     1      -1.405  17.009 -34.870  1.00  0.00    -0.386 OA
ATOM     19  H   UNK     1      -0.495  16.758 -35.139  1.00  0.00    +0.210 HD
ENDBRANCH   3  18
BRANCH   2  20
ATOM     20  O   UNK     1      -0.038  18.956 -33.425  1.00  0.00    -0.385 OA
ATOM     21  H   UNK     1       0.720  18.338 -33.381  1.00  0.00    +0.210 HD
ENDBRANCH   2  20
BRANCH   4  22
ATOM     22  C   UNK     1      -2.999  15.902 -31.670  1.00  0.00    +0.103 C 
BRANCH  22  23
ATOM     23  S   UNK     1      -2.760  14.094 -31.797  1.00  0.00    -0.158 S 
BRANCH  23  24
ATOM     24  C   UNK     1      -4.118  13.639 -32.932  1.00  0.00    +0.071 C 
BRANCH  24  25
ATOM     25  C   UNK     1      -3.767  13.306 -34.385  1.00  0.00    +0.040 C 
BRANCH  25  26
ATOM     26  C   UNK     1      -4.801  12.464 -35.151  1.00  0.00    +0.161 C 
BRANCH  26  27
ATOM     27  N   UNK     1      -4.160  11.299 -35.813  1.00  0.00    -0.318 NA
ATOM     28  H   UNK     1      -3.398  10.982 -35.204  1.00  0.00    +0.119 HD
ATOM     29  H   UNK     1      -3.708  11.641 -36.666  1.00  0.00    +0.119 HD
ENDBRANCH  26  27
BRANCH  26  30
ATOM     30  C   UNK     1      -5.551  13.291 -36.211  1.00  0.00    +0.322 C 
ATOM     31  O   UNK     1      -5.363  13.258 -37.419  1.00  0.00    -0.249 OA
BRANCH  30  32
ATOM     32  O   UNK     1      -6.556  14.035 -35.712  1.00  0.00    -0.480 OA
ATOM     33  H   UNK     1      -7.055  13.404 -35.151  1.00  0.00    +0.295 HD
ENDBRANCH  30  32
ENDBRANCH  26  30
ENDBRANCH  25  26
ENDBRANCH  24  25
ENDBRANCH  23  24
ENDBRANCH  22  23
ENDBRANCH   4  22
TORSDOF 12
ENDMDL
MODEL 2
REMARK VINA RESULT:    -7.471      2.036      2.217
REMARK INTER + INTRA:         -12.309
REMARK INTER:                 -11.718
REMARK INTRA:                  -0.590
REMARK UNBOUND:                -0.688
REMARK  Name = 
REMARK  12 active torsions:
REMARK  status: ('A' for Active; 'I' for Inactive)
REMARK    1  A    between atoms: C_3  and  N_26
REMARK    2  A    between atoms: N_7  and  C_10
REMARK    3  A    between atoms: C_11  and  O_25
REMARK    4  A    between atoms: C_12  and  O_24
REMARK    5  A    between atoms: C_13  and  C_15
REMARK    6  A    between atoms: C_15  and  S_16
REMARK    7  A    between atoms: S_16  and  C_17
REMARK    8  A    between atoms: C_17  and  C_18
REMARK    9  A    between atoms: C_18  and  C_19
REMARK   10  A    between atoms: C_19  and  C_20
REMARK   11  A    between atoms: C_19  and  N_23
REMARK   12  A    between atoms: C_20  and  O_22
REMARK                            x       y       z     vdW  Elec       q    Type
REMARK                         _______ _______ _______ _____ _____    ______ ____
ROOT
ATOM      1  C   UNK     1      -2.502  19.032 -33.018  1.00  0.00    +0.253 C 
ATOM      2  C   UNK     1      -1.175  18.301 -32.798  1.00  0.00    +0.195 C 
ATOM      3  C   UNK     1      -1.489  16.948 -33.416  1.00  0.00    +0.177 C 
ATOM      4  C   UNK     1      -2.940  16.720 -32.988  1.00  0.00    +0.162 C 
ATOM      5  O   UNK     1      -3.537  18.036 -32.831  1.00  0.00    -0.347 OA
ENDROOT
BRANCH   1  12
ATOM      6  C   UNK     1      -4.088  23.054 -33.548  1.00  0.00    +0.225 A 
ATOM      7  N   UNK     1      -4.199  23.845 -32.459  1.00  0.00    -0.219 NA
ATOM      8  C   UNK     1      -3.806  23.353 -31.263  1.00  0.00    +0.147 A 
ATOM      9  C   UNK     1      -3.302  22.043 -31.210  1.00  0.00    +0.147 A 
ATOM     10  C   UNK     1      -3.247  21.348 -32.407  1.00  0.00    +0.167 A 
ATOM     11  N   UNK     1      -3.616  21.790 -33.623  1.00  0.00    -0.216 NA
ATOM     12  N   UNK     1      -2.727  20.123 -32.086  1.00  0.00    -0.286 N 
ATOM     13  C   UNK     1      -2.506  20.118 -30.733  1.00  0.00    +0.203 A 
ATOM     14  N   UNK     1      -2.829  21.266 -30.173  1.00  0.00    -0.231 NA
BRANCH   8  15
ATOM     15  N   UNK     1      -3.918  24.161 -30.154  1.00  0.00    -0.341 N 
ATOM     16  H   UNK     1      -3.478  23.862 -29.299  1.00  0.00    +0.144 HD
ATOM     17  H   UNK     1      -4.421  25.033 -30.230  1.00  0.00    +0.144 HD
ENDBRANCH   8  15
ENDBRANCH   1  12
BRANCH   3  18
ATOM     18  O   UNK     1      -1.453  17.020 -34.850  1.00  0.00    -0.386 OA
ATOM     19  H   UNK     1      -2.075  16.331 -35.171  1.00  0.00    +0.210 HD
ENDBRANCH   3  18
BRANCH   2  20
ATOM     20  O   UNK     1      -0.024  18.902 -33.379  1.00  0.00    -0.385 OA
ATOM     21  H   UNK     1       0.048  18.583 -34.302  1.00  0.00    +0.210 HD
ENDBRANCH   2  20
BRANCH   4  22
ATOM     22  C   UNK     1      -3.119  15.956 -31.672  1.00  0.00    +0.103 C 
BRANCH  22  23
ATOM     23  S   UNK     1      -2.586  14.208 -31.720  1.00  0.00    -0.158 S 
BRANCH  23  24
ATOM     24  C   UNK     1      -4.199  13.351 -31.780  1.00  0.00    +0.071 C 
BRANCH  24  25
ATOM     25  C   UNK     1      -4.242  11.862 -31.426  1.00  0.00    +0.040 C 
BRANCH  25  26
ATOM     26  C   UNK     1      -4.665  10.912 -32.559  1.00  0.00    +0.161 C 
BRANCH  26  27
ATOM     27  N   UNK     1      -4.972  11.662 -33.803  1.00  0.00    -0.318 NA
ATOM     28  H   UNK     1      -4.837  12.659 -33.600  1.00  0.00    +0.119 HD
ATOM     29  H   UNK     1      -5.974  11.552 -33.987  1.00  0.00    +0.119 HD
ENDBRANCH  26  27
BRANCH  26  30
ATOM     30  C   UNK     1      -5.887  10.058 -32.174  1.00  0.00    +0.322 C 
ATOM     31  O   UNK     1      -6.039   8.867 -32.406  1.00  0.00    -0.249 OA
BRANCH  30  32
ATOM     32  O   UNK     1      -6.801  10.716 -31.436  1.00  0.00    -0.480 OA
ATOM     33  H   UNK     1      -7.182  11.367 -32.063  1.00  0.00    +0.295 HD
ENDBRANCH  30  32
ENDBRANCH  26  30
ENDBRANCH  25  26
ENDBRANCH  24  25
ENDBRANCH  23  24
ENDBRANCH  22  23
ENDBRANCH   4  22
TORSDOF 12
ENDMDL
MODEL 3
REMARK VINA RESULT:    -7.048      3.157      4.764
REMARK INTER + INTRA:         -11.650
REMARK INTER:                 -10.275
REMARK INTRA:                  -1.374
REMARK UNBOUND:                -0.688
REMARK  Name = 
REMARK  12 active torsions:
REMARK  status: ('A' for Active; 'I' for Inactive)
REMARK    1  A    between atoms: C_3  and  N_26
REMARK    2  A    between atoms: N_7  and  C_10
REMARK    3  A    between atoms: C_11  and  O_25
REMARK    4  A    between atoms: C_12  and  O_24
REMARK    5  A    between atoms: C_13  and  C_15
REMARK    6  A    between atoms: C_15  and  S_16
REMARK    7  A    between atoms: S_16  and  C_17
REMARK    8  A    between atoms: C_17  and  C_18
REMARK    9  A    between atoms: C_18  and  C_19
REMARK   10  A    between atoms: C_19  and  C_20
REMARK   11  A    between atoms: C_19  and  N_23
REMARK   12  A    between atoms: C_20  and  O_22
REMARK                            x       y       z     vdW  Elec       q    Type
REMARK                         _______ _______ _______ _____ _____    ______ ____
ROOT
ATOM      1  C   UNK     1      -2.875  14.471 -31.481  1.00  0.00    +0.253 C 
ATOM      2  C   UNK     1      -3.644  13.776 -32.607  1.00  0.00    +0.195 C 
ATOM      3  C   UNK     1      -4.076  12.497 -31.910  1.00  0.00    +0.177 C 
ATOM      4  C   UNK     1      -2.852  12.156 -31.058  1.00  0.00    +0.162 C 
ATOM      5  O   UNK     1      -2.193  13.417 -30.759  1.00  0.00    -0.347 OA
ENDROOT
BRANCH   1  12
ATOM      6  C   UNK     1      -3.142  18.714 -32.430  1.00  0.00    +0.225 A 
ATOM      7  N   UNK     1      -2.021  19.351 -32.832  1.00  0.00    -0.219 NA
ATOM      8  C   UNK     1      -0.876  18.639 -32.928  1.00  0.00    +0.147 A 
ATOM      9  C   UNK     1      -0.908  17.272 -32.602  1.00  0.00    +0.147 A 
ATOM     10  C   UNK     1      -2.129  16.755 -32.204  1.00  0.00    +0.167 A 
ATOM     11  N   UNK     1      -3.298  17.413 -32.100  1.00  0.00    -0.216 NA
ATOM     12  N   UNK     1      -1.891  15.430 -31.952  1.00  0.00    -0.286 N 
ATOM     13  C   UNK     1      -0.560  15.205 -32.187  1.00  0.00    +0.203 A 
ATOM     14  N   UNK     1       0.063  16.292 -32.595  1.00  0.00    -0.231 NA
BRANCH   8  15
ATOM     15  N   UNK     1       0.266  19.287 -33.339  1.00  0.00    -0.341 N 
ATOM     16  H   UNK     1       0.167  20.123 -33.893  1.00  0.00    +0.144 HD
ATOM     17  H   UNK     1       1.166  18.920 -33.066  1.00  0.00    +0.144 HD
ENDBRANCH   8  15
ENDBRANCH   1  12
BRANCH   3  18
ATOM     18  O   UNK     1      -5.181  12.745 -31.025  1.00  0.00    -0.386 OA
ATOM     19  H   UNK     1      -5.693  11.907 -30.992  1.00  0.00    +0.210 HD
ENDBRANCH   3  18
BRANCH   2  20
ATOM     20  O   UNK     1      -4.748  14.493 -33.148  1.00  0.00    -0.385 OA
ATOM     21  H   UNK     1      -5.113  15.062 -32.439  1.00  0.00    +0.210 HD
ENDBRANCH   2  20
BRANCH   4  22
ATOM     22  C   UNK     1      -1.830  11.231 -31.726  1.00  0.00    +0.103 C 
BRANCH  22  23
ATOM     23  S   UNK     1      -2.530  10.077 -32.958  1.00  0.00    -0.158 S 
BRANCH  23  24
ATOM     24  C   UNK     1      -1.778  10.710 -34.498  1.00  0.00    +0.071 C 
BRANCH  24  25
ATOM     25  C   UNK     1      -2.695  10.982 -35.694  1.00  0.00    +0.040 C 
BRANCH  25  26
ATOM     26  C   UNK     1      -4.198  11.080 -35.382  1.00  0.00    +0.161 C 
BRANCH  26  27
ATOM     27  N   UNK     1      -4.885   9.788 -35.631  1.00  0.00    -0.318 NA
ATOM     28  H   UNK     1      -4.404   9.074 -35.073  1.00  0.00    +0.119 HD
ATOM     29  H   UNK     1      -4.715   9.534 -36.609  1.00  0.00    +0.119 HD
ENDBRANCH  26  27
BRANCH  26  30
ATOM     30  C   UNK     1      -4.890  12.182 -36.207  1.00  0.00    +0.322 C 
ATOM     31  O   UNK     1      -4.889  12.280 -37.426  1.00  0.00    -0.249 OA
BRANCH  30  32
ATOM     32  O   UNK     1      -5.623  13.036 -35.469  1.00  0.00    -0.480 OA
ATOM     33  H   UNK     1      -5.800  13.781 -36.083  1.00  0.00    +0.295 HD
ENDBRANCH  30  32
ENDBRANCH  26  30
ENDBRANCH  25  26
ENDBRANCH  24  25
ENDBRANCH  23  24
ENDBRANCH  22  23
ENDBRANCH   4  22
TORSDOF 12
ENDMDL
MODEL 4
REMARK VINA RESULT:    -6.848      3.790      5.402
REMARK INTER + INTRA:         -11.339
REMARK INTER:                 -10.248
REMARK INTRA:                  -1.091
REMARK UNBOUND:                -0.688
REMARK  Name = 
REMARK  12 active torsions:
REMARK  status: ('A' for Active; 'I' for Inactive)
REMARK    1  A    between atoms: C_3  and  N_26
REMARK    2  A    between atoms: N_7  and  C_10
REMARK    3  A    between atoms: C_11  and  O_25
REMARK    4  A    between atoms: C_12  and  O_24
REMARK    5  A    between atoms: C_13  and  C_15
REMARK    6  A    between atoms: C_15  and  S_16
REMARK    7  A    between atoms: S_16  and  C_17
REMARK    8  A    between atoms: C_17  and  C_18
REMARK    9  A    between atoms: C_18  and  C_19
REMARK   10  A    between atoms: C_19  and  C_20
REMARK   11  A    between atoms: C_19  and  N_23
REMARK   12  A    between atoms: C_20  and  O_22
REMARK                            x       y       z     vdW  Elec       q    Type
REMARK                         _______ _______ _______ _____ _____    ______ ____
ROOT
ATOM      1  C   UNK     1      -2.937  14.655 -31.596  1.00  0.00    +0.253 C 
ATOM      2  C   UNK     1      -3.729  14.024 -32.744  1.00  0.00    +0.195 C 
ATOM      3  C   UNK     1      -4.196  12.733 -32.092  1.00  0.00    +0.177 C 
ATOM      4  C   UNK     1      -2.980  12.327 -31.257  1.00  0.00    +0.162 C 
ATOM      5  O   UNK     1      -2.283  13.556 -30.916  1.00  0.00    -0.347 OA
ENDROOT
BRANCH   1  12
ATOM      6  C   UNK     1      -3.098  18.925 -32.445  1.00  0.00    +0.225 A 
ATOM      7  N   UNK     1      -1.959  19.544 -32.822  1.00  0.00    -0.219 NA
ATOM      8  C   UNK     1      -0.829  18.808 -32.925  1.00  0.00    +0.147 A 
ATOM      9  C   UNK     1      -0.896  17.435 -32.633  1.00  0.00    +0.147 A 
ATOM     10  C   UNK     1      -2.132  16.938 -32.258  1.00  0.00    +0.167 A 
ATOM     11  N   UNK     1      -3.286  17.620 -32.148  1.00  0.00    -0.216 NA
ATOM     12  N   UNK     1      -1.927  15.602 -32.035  1.00  0.00    -0.286 N 
ATOM     13  C   UNK     1      -0.599  15.352 -32.265  1.00  0.00    +0.203 A 
ATOM     14  N   UNK     1       0.052  16.433 -32.641  1.00  0.00    -0.231 NA
BRANCH   8  15
ATOM     15  N   UNK     1       0.331  19.439 -33.312  1.00  0.00    -0.341 N 
ATOM     16  H   UNK     1       0.557  20.324 -32.888  1.00  0.00    +0.144 HD
ATOM     17  H   UNK     1       0.928  18.996 -33.995  1.00  0.00    +0.144 HD
ENDBRANCH   8  15
ENDBRANCH   1  12
BRANCH   3  18
ATOM     18  O   UNK     1      -5.290  12.980 -31.194  1.00  0.00    -0.386 OA
ATOM     19  H   UNK     1      -5.502  13.935 -31.283  1.00  0.00    +0.210 HD
ENDBRANCH   3  18
BRANCH   2  20
ATOM     20  O   UNK     1      -4.813  14.791 -33.254  1.00  0.00    -0.385 OA
ATOM     21  H   UNK     1      -5.052  14.427 -34.131  1.00  0.00    +0.210 HD
ENDBRANCH   2  20
BRANCH   4  22
ATOM     22  C   UNK     1      -1.987  11.397 -31.963  1.00  0.00    +0.103 C 
BRANCH  22  23
ATOM     23  S   UNK     1      -2.517   9.652 -32.076  1.00  0.00    -0.158 S 
BRANCH  23  24
ATOM     24  C   UNK     1      -3.444   9.464 -30.513  1.00  0.00    +0.071 C 
BRANCH  24  25
ATOM     25  C   UNK     1      -4.960   9.260 -30.589  1.00  0.00    +0.040 C 
BRANCH  25  26
ATOM     26  C   UNK     1      -5.618   9.592 -31.939  1.00  0.00    +0.161 C 
BRANCH  26  27
ATOM     27  N   UNK     1      -6.936  10.247 -31.748  1.00  0.00    -0.318 NA
ATOM     28  H   UNK     1      -7.451   9.701 -31.048  1.00  0.00    +0.119 HD
ATOM     29  H   UNK     1      -7.461  10.141 -32.621  1.00  0.00    +0.119 HD
ENDBRANCH  26  27
BRANCH  26  30
ATOM     30  C   UNK     1      -5.803   8.339 -32.815  1.00  0.00    +0.322 C 
ATOM     31  O   UNK     1      -6.190   7.243 -32.436  1.00  0.00    -0.249 OA
BRANCH  30  32
ATOM     32  O   UNK     1      -5.592   8.555 -34.127  1.00  0.00    -0.480 OA
ATOM     33  H   UNK     1      -4.728   8.123 -34.297  1.00  0.00    +0.295 HD
ENDBRANCH  30  32
ENDBRANCH  26  30
ENDBRANCH  25  26
ENDBRANCH  24  25
ENDBRANCH  23  24
ENDBRANCH  22  23
ENDBRANCH   4  22
TORSDOF 12
ENDMDL
MODEL 5
REMARK VINA RESULT:    -6.782      4.143      5.850
REMARK INTER + INTRA:         -11.237
REMARK INTER:                  -9.765
REMARK INTRA:                  -1.472
REMARK UNBOUND:                -0.688
REMARK  Name = 
REMARK  12 active torsions:
REMARK  status: ('A' for Active; 'I' for Inactive)
REMARK    1  A    between atoms: C_3  and  N_26
REMARK    2  A    between atoms: N_7  and  C_10
REMARK    3  A    between atoms: C_11  and  O_25
REMARK    4  A    between atoms: C_12  and  O_24
REMARK    5  A    between atoms: C_13  and  C_15
REMARK    6  A    between atoms: C_15  and  S_16
REMARK    7  A    between atoms: S_16  and  C_17
REMARK    8  A    between atoms: C_17  and  C_18
REMARK    9  A    between atoms: C_18  and  C_19
REMARK   10  A    between atoms: C_19  and  C_20
REMARK   11  A    between atoms: C_19  and  N_23
REMARK   12  A    between atoms: C_20  and  O_22
REMARK                            x       y       z     vdW  Elec       q    Type
REMARK                         _______ _______ _______ _____ _____    ______ ____
ROOT
ATOM      1  C   UNK     1      -2.906  14.301 -31.604  1.00  0.00    +0.253 C 
ATOM      2  C   UNK     1      -3.760  13.746 -32.747  1.00  0.00    +0.195 C 
ATOM      3  C   UNK     1      -4.179  12.406 -32.164  1.00  0.00    +0.177 C 
ATOM      4  C   UNK     1      -2.913  11.953 -31.434  1.00  0.00    +0.162 C 
ATOM      5  O   UNK     1      -2.206  13.162 -31.046  1.00  0.00    -0.347 OA
ENDROOT
BRANCH   1  12
ATOM      6  C   UNK     1      -3.218  18.570 -32.410  1.00  0.00    +0.225 A 
ATOM      7  N   UNK     1      -2.102  19.234 -32.779  1.00  0.00    -0.219 NA
ATOM      8  C   UNK     1      -0.947  18.540 -32.888  1.00  0.00    +0.147 A 
ATOM      9  C   UNK     1      -0.964  17.163 -32.610  1.00  0.00    +0.147 A 
ATOM     10  C   UNK     1      -2.182  16.617 -32.242  1.00  0.00    +0.167 A 
ATOM     11  N   UNK     1      -3.360  17.257 -32.127  1.00  0.00    -0.216 NA
ATOM     12  N   UNK     1      -1.929  15.288 -32.033  1.00  0.00    -0.286 N 
ATOM     13  C   UNK     1      -0.593  15.088 -32.263  1.00  0.00    +0.203 A 
ATOM     14  N   UNK     1       0.019  16.196 -32.627  1.00  0.00    -0.231 NA
BRANCH   8  15
ATOM     15  N   UNK     1       0.190  19.217 -33.266  1.00  0.00    -0.341 N 
ATOM     16  H   UNK     1       1.049  19.018 -32.779  1.00  0.00    +0.144 HD
ATOM     17  H   UNK     1       0.139  19.879 -34.026  1.00  0.00    +0.144 HD
ENDBRANCH   8  15
ENDBRANCH   1  12
BRANCH   3  18
ATOM     18  O   UNK     1      -5.220  12.576 -31.189  1.00  0.00    -0.386 OA
ATOM     19  H   UNK     1      -5.502  11.670 -30.935  1.00  0.00    +0.210 HD
ENDBRANCH   3  18
BRANCH   2  20
ATOM     20  O   UNK     1      -4.878  14.536 -33.135  1.00  0.00    -0.385 OA
ATOM     21  H   UNK     1      -5.015  15.220 -32.448  1.00  0.00    +0.210 HD
ENDBRANCH   2  20
BRANCH   4  22
ATOM     22  C   UNK     1      -1.957  11.088 -32.263  1.00  0.00    +0.103 C 
BRANCH  22  23
ATOM     23  S   UNK     1      -2.761  10.087 -33.564  1.00  0.00    -0.158 S 
BRANCH  23  24
ATOM     24  C   UNK     1      -3.059   8.522 -32.669  1.00  0.00    +0.071 C 
BRANCH  24  25
ATOM     25  C   UNK     1      -4.491   8.193 -32.241  1.00  0.00    +0.040 C 
BRANCH  25  26
ATOM     26  C   UNK     1      -4.741   8.115 -30.725  1.00  0.00    +0.161 C 
BRANCH  26  27
ATOM     27  N   UNK     1      -5.611   6.962 -30.382  1.00  0.00    -0.318 NA
ATOM     28  H   UNK     1      -5.910   7.083 -29.409  1.00  0.00    +0.119 HD
ATOM     29  H   UNK     1      -5.024   6.122 -30.387  1.00  0.00    +0.119 HD
ENDBRANCH  26  27
BRANCH  26  30
ATOM     30  C   UNK     1      -5.378   9.404 -30.176  1.00  0.00    +0.322 C 
ATOM     31  O   UNK     1      -4.955  10.082 -29.250  1.00  0.00    -0.249 OA
BRANCH  30  32
ATOM     32  O   UNK     1      -6.448   9.826 -30.877  1.00  0.00    -0.480 OA
ATOM     33  H   UNK     1      -6.137   9.808 -31.807  1.00  0.00    +0.295 HD
ENDBRANCH  30  32
ENDBRANCH  26  30
ENDBRANCH  25  26
ENDBRANCH  24  25
ENDBRANCH  23  24
ENDBRANCH  22  23
ENDBRANCH   4  22
TORSDOF 12
ENDMDL
MODEL 6
REMARK VINA RESULT:    -6.771      7.161     10.348
REMARK INTER + INTRA:         -11.220
REMARK INTER:                 -10.639
REMARK INTRA:                  -0.581
REMARK UNBOUND:                -0.688
REMARK  Name = 
REMARK  12 active torsions:
REMARK  status: ('A' for Active; 'I' for Inactive)
REMARK    1  A    between atoms: C_3  and  N_26
REMARK    2  A    between atoms: N_7  and  C_10
REMARK    3  A    between atoms: C_11  and  O_25
REMARK    4  A    between atoms: C_12  and  O_24
REMARK    5  A    between atoms: C_13  and  C_15
REMARK    6  A    between atoms: C_15  and  S_16
REMARK    7  A    between atoms: S_16  and  C_17
REMARK    8  A    between atoms: C_17  and  C_18
REMARK    9  A    between atoms: C_18  and  C_19
REMARK   10  A    between atoms: C_19  and  C_20
REMARK   11  A    between atoms: C_19  and  N_23
REMARK   12  A    between atoms: C_20  and  O_22
REMARK                            x       y       z     vdW  Elec       q    Type
REMARK                         _______ _______ _______ _____ _____    ______ ____
ROOT
ATOM      1  C   UNK     1      -5.163   9.002 -30.962  1.00  0.00    +0.253 C 
ATOM      2  C   UNK     1      -5.781  10.184 -31.712  1.00  0.00    +0.195 C 
ATOM      3  C   UNK     1      -5.306   9.902 -33.129  1.00  0.00    +0.177 C 
ATOM      4  C   UNK     1      -3.885   9.381 -32.902  1.00  0.00    +0.162 C 
ATOM      5  O   UNK     1      -3.875   8.769 -31.583  1.00  0.00    -0.347 OA
ENDROOT
BRANCH   1  12
ATOM      6  C   UNK     1      -6.635   6.983 -27.394  1.00  0.00    +0.225 A 
ATOM      7  N   UNK     1      -6.244   7.449 -26.188  1.00  0.00    -0.219 NA
ATOM      8  C   UNK     1      -5.423   8.523 -26.149  1.00  0.00    +0.147 A 
ATOM      9  C   UNK     1      -5.016   9.099 -27.364  1.00  0.00    +0.147 A 
ATOM     10  C   UNK     1      -5.496   8.513 -28.523  1.00  0.00    +0.167 A 
ATOM     11  N   UNK     1      -6.319   7.454 -28.620  1.00  0.00    -0.216 NA
ATOM     12  N   UNK     1      -4.962   9.252 -29.545  1.00  0.00    -0.286 N 
ATOM     13  C   UNK     1      -4.183  10.227 -28.977  1.00  0.00    +0.203 A 
ATOM     14  N   UNK     1      -4.203  10.174 -27.661  1.00  0.00    -0.231 NA
BRANCH   8  15
ATOM     15  N   UNK     1      -5.027   9.000 -24.921  1.00  0.00    -0.341 N 
ATOM     16  H   UNK     1      -4.049   9.189 -24.775  1.00  0.00    +0.144 HD
ATOM     17  H   UNK     1      -5.723   9.160 -24.207  1.00  0.00    +0.144 HD
ENDBRANCH   8  15
ENDBRANCH   1  12
BRANCH   3  18
ATOM     18  O   UNK     1      -6.077   8.848 -33.726  1.00  0.00    -0.386 OA
ATOM     19  H   UNK     1      -5.641   8.010 -33.460  1.00  0.00    +0.210 HD
ENDBRANCH   3  18
BRANCH   2  20
ATOM     20  O   UNK     1      -7.197  10.305 -31.635  1.00  0.00    -0.385 OA
ATOM     21  H   UNK     1      -7.431  11.231 -31.851  1.00  0.00    +0.210 HD
ENDBRANCH   2  20
BRANCH   4  22
ATOM     22  C   UNK     1      -2.786  10.447 -32.940  1.00  0.00    +0.103 C 
BRANCH  22  23
ATOM     23  S   UNK     1      -3.381  12.154 -33.211  1.00  0.00    -0.158 S 
BRANCH  23  24
ATOM     24  C   UNK     1      -3.212  12.300 -35.025  1.00  0.00    +0.071 C 
BRANCH  24  25
ATOM     25  C   UNK     1      -4.458  12.088 -35.889  1.00  0.00    +0.040 C 
BRANCH  25  26
ATOM     26  C   UNK     1      -5.188  13.362 -36.346  1.00  0.00    +0.161 C 
BRANCH  26  27
ATOM     27  N   UNK     1      -5.858  14.035 -35.205  1.00  0.00    -0.318 NA
ATOM     28  H   UNK     1      -5.967  15.025 -35.454  1.00  0.00    +0.119 HD
ATOM     29  H   UNK     1      -5.207  14.020 -34.414  1.00  0.00    +0.119 HD
ENDBRANCH  26  27
BRANCH  26  30
ATOM     30  C   UNK     1      -6.232  13.071 -37.439  1.00  0.00    +0.322 C 
ATOM     31  O   UNK     1      -6.281  12.074 -38.145  1.00  0.00    -0.249 OA
BRANCH  30  32
ATOM     32  O   UNK     1      -7.209  13.994 -37.520  1.00  0.00    -0.480 OA
ATOM     33  H   UNK     1      -6.991  14.627 -36.803  1.00  0.00    +0.295 HD
ENDBRANCH  30  32
ENDBRANCH  26  30
ENDBRANCH  25  26
ENDBRANCH  24  25
ENDBRANCH  23  24
ENDBRANCH  22  23
ENDBRANCH   4  22
TORSDOF 12
ENDMDL
MODEL 7
REMARK VINA RESULT:    -6.662      2.786      4.161
REMARK INTER + INTRA:         -11.050
REMARK INTER:                  -9.908
REMARK INTRA:                  -1.141
REMARK UNBOUND:                -0.688
REMARK  Name = 
REMARK  12 active torsions:
REMARK  status: ('A' for Active; 'I' for Inactive)
REMARK    1  A    between atoms: C_3  and  N_26
REMARK    2  A    between atoms: N_7  and  C_10
REMARK    3  A    between atoms: C_11  and  O_25
REMARK    4  A    between atoms: C_12  and  O_24
REMARK    5  A    between atoms: C_13  and  C_15
REMARK    6  A    between atoms: C_15  and  S_16
REMARK    7  A    between atoms: S_16  and  C_17
REMARK    8  A    between atoms: C_17  and  C_18
REMARK    9  A    between atoms: C_18  and  C_19
REMARK   10  A    between atoms: C_19  and  C_20
REMARK   11  A    between atoms: C_19  and  N_23
REMARK   12  A    between atoms: C_20  and  O_22
REMARK                            x       y       z     vdW  Elec       q    Type
REMARK                         _______ _______ _______ _____ _____    ______ ____
ROOT
ATOM      1  C   UNK     1      -1.233  14.706 -32.416  1.00  0.00    +0.253 C 
ATOM      2  C   UNK     1      -1.081  14.081 -31.026  1.00  0.00    +0.195 C 
ATOM      3  C   UNK     1      -0.892  12.617 -31.392  1.00  0.00    +0.177 C 
ATOM      4  C   UNK     1      -1.862  12.443 -32.563  1.00  0.00    +0.162 C 
ATOM      5  O   UNK     1      -1.975  13.743 -33.203  1.00  0.00    -0.347 OA
ENDROOT
BRANCH   1  12
ATOM      6  C   UNK     1       0.073  18.833 -32.900  1.00  0.00    +0.225 A 
ATOM      7  N   UNK     1      -0.863  19.807 -32.870  1.00  0.00    -0.219 NA
ATOM      8  C   UNK     1      -2.154  19.453 -32.684  1.00  0.00    +0.147 A 
ATOM      9  C   UNK     1      -2.460  18.090 -32.533  1.00  0.00    +0.147 A 
ATOM     10  C   UNK     1      -1.398  17.204 -32.585  1.00  0.00    +0.167 A 
ATOM     11  N   UNK     1      -0.097  17.500 -32.759  1.00  0.00    -0.216 NA
ATOM     12  N   UNK     1      -1.956  15.966 -32.412  1.00  0.00    -0.286 N 
ATOM     13  C   UNK     1      -3.309  16.146 -32.278  1.00  0.00    +0.203 A 
ATOM     14  N   UNK     1      -3.648  17.417 -32.333  1.00  0.00    -0.231 NA
BRANCH   8  15
ATOM     15  N   UNK     1      -3.107  20.445 -32.652  1.00  0.00    -0.341 N 
ATOM     16  H   UNK     1      -3.090  21.100 -31.887  1.00  0.00    +0.144 HD
ATOM     17  H   UNK     1      -3.784  20.501 -33.400  1.00  0.00    +0.144 HD
ENDBRANCH   8  15
ENDBRANCH   1  12
BRANCH   3  18
ATOM     18  O   UNK     1       0.439  12.378 -31.876  1.00  0.00    -0.386 OA
ATOM     19  H   UNK     1       0.777  11.610 -31.366  1.00  0.00    +0.210 HD
ENDBRANCH   3  18
BRANCH   2  20
ATOM     20  O   UNK     1      -0.012  14.577 -30.229  1.00  0.00    -0.385 OA
ATOM     21  H   UNK     1       0.412  13.813 -29.787  1.00  0.00    +0.210 HD
ENDBRANCH   2  20
BRANCH   4  22
ATOM     22  C   UNK     1      -3.270  11.977 -32.179  1.00  0.00    +0.103 C 
BRANCH  22  23
ATOM     23  S   UNK     1      -3.853  10.487 -33.063  1.00  0.00    -0.158 S 
BRANCH  23  24
ATOM     24  C   UNK     1      -4.952  11.232 -34.319  1.00  0.00    +0.071 C 
BRANCH  24  25
ATOM     25  C   UNK     1      -4.311  12.007 -35.475  1.00  0.00    +0.040 C 
BRANCH  25  26
ATOM     26  C   UNK     1      -4.790  13.456 -35.661  1.00  0.00    +0.161 C 
BRANCH  26  27
ATOM     27  N   UNK     1      -5.062  14.105 -34.354  1.00  0.00    -0.318 NA
ATOM     28  H   UNK     1      -5.138  13.360 -33.653  1.00  0.00    +0.119 HD
ATOM     29  H   UNK     1      -5.993  14.528 -34.409  1.00  0.00    +0.119 HD
ENDBRANCH  26  27
BRANCH  26  30
ATOM     30  C   UNK     1      -6.055  13.541 -36.535  1.00  0.00    +0.322 C 
ATOM     31  O   UNK     1      -6.187  13.083 -37.661  1.00  0.00    -0.249 OA
BRANCH  30  32
ATOM     32  O   UNK     1      -7.109  14.103 -35.915  1.00  0.00    -0.480 OA
ATOM     33  H   UNK     1      -7.877  13.813 -36.453  1.00  0.00    +0.295 HD
ENDBRANCH  30  32
ENDBRANCH  26  30
ENDBRANCH  25  26
ENDBRANCH  24  25
ENDBRANCH  23  24
ENDBRANCH  22  23
ENDBRANCH   4  22
TORSDOF 12
ENDMDL
MODEL 8
REMARK VINA RESULT:    -6.414      5.756     10.392
REMARK INTER + INTRA:         -10.664
REMARK INTER:                  -9.916
REMARK INTRA:                  -0.748
REMARK UNBOUND:                -0.688
REMARK  Name = 
REMARK  12 active torsions:
REMARK  status: ('A' for Active; 'I' for Inactive)
REMARK    1  A    between atoms: C_3  and  N_26
REMARK    2  A    between atoms: N_7  and  C_10
REMARK    3  A    between atoms: C_11  and  O_25
REMARK    4  A    between atoms: C_12  and  O_24
REMARK    5  A    between atoms: C_13  and  C_15
REMARK    6  A    between atoms: C_15  and  S_16
REMARK    7  A    between atoms: S_16  and  C_17
REMARK    8  A    between atoms: C_17  and  C_18
REMARK    9  A    between atoms: C_18  and  C_19
REMARK   10  A    between atoms: C_19  and  C_20
REMARK   11  A    between atoms: C_19  and  N_23
REMARK   12  A    between atoms: C_20  and  O_22
REMARK                            x       y       z     vdW  Elec       q    Type
REMARK                         _______ _______ _______ _____ _____    ______ ____
ROOT
ATOM      1  C   UNK     1      -4.884   9.378 -31.020  1.00  0.00    +0.253 C 
ATOM      2  C   UNK     1      -5.701  10.445 -31.753  1.00  0.00    +0.195 C 
ATOM      3  C   UNK     1      -5.159  10.298 -33.166  1.00  0.00    +0.177 C 
ATOM      4  C   UNK     1      -3.670  10.045 -32.923  1.00  0.00    +0.162 C 
ATOM      5  O   UNK     1      -3.566   9.408 -31.621  1.00  0.00    -0.347 OA
ENDROOT
BRANCH   1  12
ATOM      6  C   UNK     1      -6.354   7.212 -27.539  1.00  0.00    +0.225 A 
ATOM      7  N   UNK     1      -6.043   7.686 -26.313  1.00  0.00    -0.219 NA
ATOM      8  C   UNK     1      -5.298   8.811 -26.228  1.00  0.00    +0.147 A 
ATOM      9  C   UNK     1      -4.884   9.432 -27.419  1.00  0.00    +0.147 A 
ATOM     10  C   UNK     1      -5.278   8.832 -28.603  1.00  0.00    +0.167 A 
ATOM     11  N   UNK     1      -6.023   7.721 -28.746  1.00  0.00    -0.216 NA
ATOM     12  N   UNK     1      -4.755   9.620 -29.594  1.00  0.00    -0.286 N 
ATOM     13  C   UNK     1      -4.067  10.636 -28.983  1.00  0.00    +0.203 A 
ATOM     14  N   UNK     1      -4.134  10.562 -27.670  1.00  0.00    -0.231 NA
BRANCH   8  15
ATOM     15  N   UNK     1      -4.983   9.295 -24.979  1.00  0.00    -0.341 N 
ATOM     16  H   UNK     1      -5.675   9.835 -24.487  1.00  0.00    +0.144 HD
ATOM     17  H   UNK     1      -4.077   9.085 -24.585  1.00  0.00    +0.144 HD
ENDBRANCH   8  15
ENDBRANCH   1  12
BRANCH   3  18
ATOM     18  O   UNK     1      -5.710   9.136 -33.806  1.00  0.00    -0.386 OA
ATOM     19  H   UNK     1      -6.651   9.095 -33.528  1.00  0.00    +0.210 HD
ENDBRANCH   3  18
BRANCH   2  20
ATOM     20  O   UNK     1      -7.115  10.297 -31.702  1.00  0.00    -0.385 OA
ATOM     21  H   UNK     1      -7.362   9.561 -32.299  1.00  0.00    +0.210 HD
ENDBRANCH   2  20
BRANCH   4  22
ATOM     22  C   UNK     1      -2.789  11.298 -32.912  1.00  0.00    +0.103 C 
BRANCH  22  23
ATOM     23  S   UNK     1      -3.374  12.657 -33.986  1.00  0.00    -0.158 S 
BRANCH  23  24
ATOM     24  C   UNK     1      -3.534  14.017 -32.775  1.00  0.00    +0.071 C 
BRANCH  24  25
ATOM     25  C   UNK     1      -2.258  14.710 -32.290  1.00  0.00    +0.040 C 
BRANCH  25  26
ATOM     26  C   UNK     1      -2.308  16.245 -32.224  1.00  0.00    +0.161 C 
BRANCH  26  27
ATOM     27  N   UNK     1      -3.698  16.745 -32.375  1.00  0.00    -0.318 NA
ATOM     28  H   UNK     1      -3.690  17.745 -32.151  1.00  0.00    +0.119 HD
ATOM     29  H   UNK     1      -4.264  16.303 -31.644  1.00  0.00    +0.119 HD
ENDBRANCH  26  27
BRANCH  26  30
ATOM     30  C   UNK     1      -1.421  16.900 -33.300  1.00  0.00    +0.322 C 
ATOM     31  O   UNK     1      -0.361  17.478 -33.108  1.00  0.00    -0.249 OA
BRANCH  30  32
ATOM     32  O   UNK     1      -1.859  16.710 -34.558  1.00  0.00    -0.480 OA
ATOM     33  H   UNK     1      -1.042  16.758 -35.098  1.00  0.00    +0.295 HD
ENDBRANCH  30  32
ENDBRANCH  26  30
ENDBRANCH  25  26
ENDBRANCH  24  25
ENDBRANCH  23  24
ENDBRANCH  22  23
ENDBRANCH   4  22
TORSDOF 12
ENDMDL
MODEL 9
REMARK VINA RESULT:    -6.175      7.525     11.088
REMARK INTER + INTRA:         -10.292
REMARK INTER:                  -9.387
REMARK INTRA:                  -0.905
REMARK UNBOUND:                -0.688
REMARK  Name = 
REMARK  12 active torsions:
REMARK  status: ('A' for Active; 'I' for Inactive)
REMARK    1  A    between atoms: C_3  and  N_26
REMARK    2  A    between atoms: N_7  and  C_10
REMARK    3  A    between atoms: C_11  and  O_25
REMARK    4  A    between atoms: C_12  and  O_24
REMARK    5  A    between atoms: C_13  and  C_15
REMARK    6  A    between atoms: C_15  and  S_16
REMARK    7  A    between atoms: S_16  and  C_17
REMARK    8  A    between atoms: C_17  and  C_18
REMARK    9  A    between atoms: C_18  and  C_19
REMARK   10  A    between atoms: C_19  and  C_20
REMARK   11  A    between atoms: C_19  and  N_23
REMARK   12  A    between atoms: C_20  and  O_22
REMARK                            x       y       z     vdW  Elec       q    Type
REMARK                         _______ _______ _______ _____ _____    ______ ____
ROOT
ATOM      1  C   UNK     1      -5.177   9.625 -28.630  1.00  0.00    +0.253 C 
ATOM      2  C   UNK     1      -3.751   9.723 -29.180  1.00  0.00    +0.195 C 
ATOM      3  C   UNK     1      -4.010  10.379 -30.526  1.00  0.00    +0.177 C 
ATOM      4  C   UNK     1      -5.306   9.702 -30.979  1.00  0.00    +0.162 C 
ATOM      5  O   UNK     1      -6.020   9.326 -29.770  1.00  0.00    -0.347 OA
ENDROOT
BRANCH   1  12
ATOM      6  C   UNK     1      -4.137   9.408 -24.406  1.00  0.00    +0.225 A 
ATOM      7  N   UNK     1      -4.452   8.284 -23.727  1.00  0.00    -0.219 NA
ATOM      8  C   UNK     1      -5.066   7.281 -24.393  1.00  0.00    +0.147 A 
ATOM      9  C   UNK     1      -5.348   7.457 -25.758  1.00  0.00    +0.147 A 
ATOM     10  C   UNK     1      -4.967   8.664 -26.322  1.00  0.00    +0.167 A 
ATOM     11  N   UNK     1      -4.348   9.689 -25.710  1.00  0.00    -0.216 NA
ATOM     12  N   UNK     1      -5.347   8.580 -27.635  1.00  0.00    -0.286 N 
ATOM     13  C   UNK     1      -5.943   7.358 -27.808  1.00  0.00    +0.203 A 
ATOM     14  N   UNK     1      -5.949   6.647 -26.699  1.00  0.00    -0.231 NA
BRANCH   8  15
ATOM     15  N   UNK     1      -5.385   6.135 -23.702  1.00  0.00    -0.341 N 
ATOM     16  H   UNK     1      -6.285   6.082 -23.254  1.00  0.00    +0.144 HD
ATOM     17  H   UNK     1      -4.719   5.376 -23.674  1.00  0.00    +0.144 HD
ENDBRANCH   8  15
ENDBRANCH   1  12
BRANCH   3  18
ATOM     18  O   UNK     1      -4.271  11.782 -30.370  1.00  0.00    -0.386 OA
ATOM     19  H   UNK     1      -4.179  12.176 -31.265  1.00  0.00    +0.210 HD
ENDBRANCH   3  18
BRANCH   2  20
ATOM     20  O   UNK     1      -2.825  10.462 -28.392  1.00  0.00    -0.385 OA
ATOM     21  H   UNK     1      -1.982   9.964 -28.374  1.00  0.00    +0.210 HD
ENDBRANCH   2  20
BRANCH   4  22
ATOM     22  C   UNK     1      -5.120   8.443 -31.832  1.00  0.00    +0.103 C 
BRANCH  22  23
ATOM     23  S   UNK     1      -3.820   8.568 -33.111  1.00  0.00    -0.158 S 
BRANCH  23  24
ATOM     24  C   UNK     1      -4.647   9.628 -34.350  1.00  0.00    +0.071 C 
BRANCH  24  25
ATOM     25  C   UNK     1      -4.504  11.146 -34.216  1.00  0.00    +0.040 C 
BRANCH  25  26
ATOM     26  C   UNK     1      -3.853  11.870 -35.407  1.00  0.00    +0.161 C 
BRANCH  26  27
ATOM     27  N   UNK     1      -2.880  12.892 -34.948  1.00  0.00    -0.318 NA
ATOM     28  H   UNK     1      -3.292  13.365 -34.136  1.00  0.00    +0.119 HD
ATOM     29  H   UNK     1      -2.817  13.606 -35.680  1.00  0.00    +0.119 HD
ENDBRANCH  26  27
BRANCH  26  30
ATOM     30  C   UNK     1      -4.898  12.545 -36.315  1.00  0.00    +0.322 C 
ATOM     31  O   UNK     1      -5.033  12.366 -37.517  1.00  0.00    -0.249 OA
BRANCH  30  32
ATOM     32  O   UNK     1      -5.773  13.325 -35.653  1.00  0.00    -0.480 OA
ATOM     33  H   UNK     1      -6.593  12.787 -35.630  1.00  0.00    +0.295 HD
ENDBRANCH  30  32
ENDBRANCH  26  30
ENDBRANCH  25  26
ENDBRANCH  24  25
ENDBRANCH  23  24
ENDBRANCH  22  23
ENDBRANCH   4  22
TORSDOF 12
ENDMDL
