MODEL 1
REMARK VINA RESULT:    -7.819      0.000      0.000
REMARK INTER + INTRA:         -12.466
REMARK INTER:                 -11.934
REMARK INTRA:                  -0.533
REMARK UNBOUND:                -0.533
REMARK  Name = 
REMARK  12 active torsions:
REMARK  status: ('A' for Active; 'I' for Inactive)
REMARK    1  A    between atoms: C_1  and  S_2
REMARK    2  A    between atoms: S_2  and  C_3
REMARK    3  A    between atoms: S_2  and  C_10
REMARK    4  A    between atoms: C_3  and  C_4
REMARK    5  A    between atoms: C_4  and  CA_5
REMARK    6  A    between atoms: CA_5  and  C_6
REMARK    7  A    between atoms: CA_5  and  N_9
REMARK    8  A    between atoms: C_10  and  C_11
REMARK    9  A    between atoms: C_12  and  O_27
REMARK   10  A    between atoms: C_13  and  O_26
REMARK   11  A    between atoms: C_14  and  N_16
REMARK   12  A    between atoms: C_24  and  N_25
REMARK                            x       y       z     vdW  Elec       q    Type
REMARK                         _______ _______ _______ _____ _____    ______ ____
ROOT
ATOM      1  C   UNL     1      -3.089  16.470 -33.036  1.00  0.00    +0.161 C 
ATOM      2  C   UNL     1      -1.653  16.667 -33.522  1.00  0.00    +0.177 C 
ATOM      3  C   UNL     1      -1.294  18.026 -32.952  1.00  0.00    +0.195 C 
ATOM      4  C   UNL     1      -2.626  18.771 -33.098  1.00  0.00    +0.253 C 
ATOM      5  O   UNL     1      -3.676  17.796 -32.981  1.00  0.00    -0.347 OA
ENDROOT
BRANCH   4   6
ATOM      6  N   UNL     1      -2.809  19.810 -32.100  1.00  0.00    -0.286 N 
ATOM      7  C   UNL     1      -2.666  19.702 -30.743  1.00  0.00    +0.203 A 
ATOM      8  N   UNL     1      -2.945  20.833 -30.127  1.00  0.00    -0.231 NA
ATOM      9  C   UNL     1      -3.279  21.713 -31.134  1.00  0.00    +0.147 A 
ATOM     10  C   UNL     1      -3.198  21.095 -32.372  1.00  0.00    +0.167 A 
ATOM     11  N   UNL     1      -3.437  21.645 -33.578  1.00  0.00    -0.216 NA
ATOM     12  C   UNL     1      -3.805  22.939 -33.441  1.00  0.00    +0.225 A 
ATOM     13  N   UNL     1      -3.930  23.665 -32.310  1.00  0.00    -0.219 NA
ATOM     14  C   UNL     1      -3.665  23.063 -31.127  1.00  0.00    +0.147 A 
BRANCH  14  15
ATOM     15  N   UNL     1      -3.783  23.803 -29.973  1.00  0.00    -0.341 N 
ATOM     16  H   UNL     1      -2.947  24.020 -29.449  1.00  0.00    +0.144 HD
ATOM     17  H   UNL     1      -4.693  24.141 -29.709  1.00  0.00    +0.144 HD
ENDBRANCH  14  15
ENDBRANCH   4   6
BRANCH   3  18
ATOM     18  O   UNL     1      -0.213  18.603 -33.690  1.00  0.00    -0.385 OA
ATOM     19  H   UNL     1       0.106  17.902 -34.302  1.00  0.00    +0.210 HD
ENDBRANCH   3  18
BRANCH   2  20
ATOM     20  O   UNL     1      -1.615  16.742 -34.956  1.00  0.00    -0.386 OA
ATOM     21  H   UNL     1      -2.541  16.914 -35.224  1.00  0.00    +0.210 HD
ENDBRANCH   2  20
BRANCH   1  22
ATOM     22  C   UNL     1      -3.120  15.842 -31.634  1.00  0.00    +0.093 C 
BRANCH  22  24
ATOM     23  C   UNL     1      -4.364  13.442 -31.206  1.00  0.00    +0.073 C 
ATOM     24  S   UNL     1      -2.736  14.065 -31.679  1.00  0.00    -0.209 S 
BRANCH  24  25
ATOM     25  C   UNL     1      -2.875  13.749 -33.479  1.00  0.00    +0.061 C 
BRANCH  25  26
ATOM     26  C   UNL     1      -4.098  12.968 -33.955  1.00  0.00    +0.040 C 
BRANCH  26  27
ATOM     27  CA  UNL     1      -4.570  13.414 -35.341  1.00  0.00    +0.166 C 
BRANCH  27  28
ATOM     28  C   UNL     1      -4.720  12.145 -36.261  1.00  0.00    +0.372 C 
ATOM     29  O   UNL     1      -4.506  11.042 -35.672  1.00  0.00    -0.245 OA
ATOM     30  OXT UNL     1      -5.057  12.380 -37.453  1.00  0.00    -0.245 OA
ENDBRANCH  27  28
BRANCH  27  31
ATOM     31  N   UNL     1      -5.921  14.059 -35.205  1.00  0.00    -0.318 NA
ATOM     32  H1  UNL     1      -6.584  13.364 -35.556  1.00  0.00    +0.119 HD
ATOM     33  H2  UNL     1      -6.098  13.994 -34.187  1.00  0.00    +0.119 HD
ENDBRANCH  27  31
ENDBRANCH  26  27
ENDBRANCH  25  26
ENDBRANCH  24  25
ENDBRANCH  22  24
ENDBRANCH   1  22
TORSDOF 11
ENDMDL
MODEL 2
REMARK VINA RESULT:    -7.064      3.746      5.436
REMARK INTER + INTRA:         -11.314
REMARK INTER:                 -10.002
REMARK INTRA:                  -1.312
REMARK UNBOUND:                -0.533
REMARK  Name = 
REMARK  12 active torsions:
REMARK  status: ('A' for Active; 'I' for Inactive)
REMARK    1  A    between atoms: C_1  and  S_2
REMARK    2  A    between atoms: S_2  and  C_3
REMARK    3  A    between atoms: S_2  and  C_10
REMARK    4  A    between atoms: C_3  and  C_4
REMARK    5  A    between atoms: C_4  and  CA_5
REMARK    6  A    between atoms: CA_5  and  C_6
REMARK    7  A    between atoms: CA_5  and  N_9
REMARK    8  A    between atoms: C_10  and  C_11
REMARK    9  A    between atoms: C_12  and  O_27
REMARK   10  A    between atoms: C_13  and  O_26
REMARK   11  A    between atoms: C_14  and  N_16
REMARK   12  A    between atoms: C_24  and  N_25
REMARK                            x       y       z     vdW  Elec       q    Type
REMARK                         _______ _______ _______ _____ _____    ______ ____
ROOT
ATOM      1  C   UNL     1      -2.989  12.216 -31.200  1.00  0.00    +0.161 C 
ATOM      2  C   UNL     1      -4.193  12.574 -32.072  1.00  0.00    +0.177 C 
ATOM      3  C   UNL     1      -3.765  13.883 -32.706  1.00  0.00    +0.195 C 
ATOM      4  C   UNL     1      -3.001  14.538 -31.549  1.00  0.00    +0.253 C 
ATOM      5  O   UNL     1      -2.423  13.480 -30.766  1.00  0.00    -0.347 OA
ENDROOT
BRANCH   4   6
ATOM      6  N   UNL     1      -1.957  15.442 -31.996  1.00  0.00    -0.286 N 
ATOM      7  C   UNL     1      -0.638  15.151 -32.225  1.00  0.00    +0.203 A 
ATOM      8  N   UNL     1       0.044  16.218 -32.589  1.00  0.00    -0.231 NA
ATOM      9  C   UNL     1      -0.877  17.243 -32.600  1.00  0.00    +0.147 A 
ATOM     10  C   UNL     1      -2.131  16.780 -32.236  1.00  0.00    +0.167 A 
ATOM     11  N   UNL     1      -3.272  17.489 -32.150  1.00  0.00    -0.216 NA
ATOM     12  C   UNL     1      -3.045  18.787 -32.459  1.00  0.00    +0.225 A 
ATOM     13  N   UNL     1      -1.887  19.376 -32.824  1.00  0.00    -0.219 NA
ATOM     14  C   UNL     1      -0.774  18.611 -32.905  1.00  0.00    +0.147 A 
BRANCH  14  15
ATOM     15  N   UNL     1       0.406  19.207 -33.285  1.00  0.00    -0.341 N 
ATOM     16  H   UNL     1       0.504  20.206 -33.167  1.00  0.00    +0.144 HD
ATOM     17  H   UNL     1       1.152  18.625 -33.628  1.00  0.00    +0.144 HD
ENDBRANCH  14  15
ENDBRANCH   4   6
BRANCH   3  18
ATOM     18  O   UNL     1      -4.911  14.619 -33.145  1.00  0.00    -0.385 OA
ATOM     19  H   UNL     1      -5.614  14.457 -32.477  1.00  0.00    +0.210 HD
ENDBRANCH   3  18
BRANCH   2  20
ATOM     20  O   UNL     1      -5.351  12.811 -31.256  1.00  0.00    -0.386 OA
ATOM     21  H   UNL     1      -5.018  12.791 -30.335  1.00  0.00    +0.210 HD
ENDBRANCH   2  20
BRANCH   1  22
ATOM     22  C   UNL     1      -1.935  11.435 -32.000  1.00  0.00    +0.093 C 
BRANCH  22  24
ATOM     23  C   UNL     1      -0.991   9.085 -33.038  1.00  0.00    +0.073 C 
ATOM     24  S   UNL     1      -2.569   9.827 -32.567  1.00  0.00    -0.209 S 
BRANCH  24  25
ATOM     25  C   UNL     1      -2.763   8.971 -30.958  1.00  0.00    +0.061 C 
BRANCH  25  26
ATOM     26  C   UNL     1      -4.136   8.377 -30.647  1.00  0.00    +0.040 C 
BRANCH  26  27
ATOM     27  CA  UNL     1      -5.201   9.455 -30.433  1.00  0.00    +0.166 C 
BRANCH  27  28
ATOM     28  C   UNL     1      -6.211   9.419 -31.640  1.00  0.00    +0.372 C 
ATOM     29  O   UNL     1      -6.012   8.475 -32.463  1.00  0.00    -0.245 OA
ATOM     30  OXT UNL     1      -7.102  10.312 -31.624  1.00  0.00    -0.245 OA
ENDBRANCH  27  28
BRANCH  27  31
ATOM     31  N   UNL     1      -5.960   9.138 -29.175  1.00  0.00    -0.318 NA
ATOM     32  H1  UNL     1      -5.274   8.709 -28.550  1.00  0.00    +0.119 HD
ATOM     33  H2  UNL     1      -6.061  10.069 -28.735  1.00  0.00    +0.119 HD
ENDBRANCH  27  31
ENDBRANCH  26  27
ENDBRANCH  25  26
ENDBRANCH  24  25
ENDBRANCH  22  24
ENDBRANCH   1  22
TORSDOF 11
ENDMDL
MODEL 3
REMARK VINA RESULT:    -7.014      3.016      4.579
REMARK INTER + INTRA:         -11.237
REMARK INTER:                 -10.300
REMARK INTRA:                  -0.937
REMARK UNBOUND:                -0.533
REMARK  Name = 
REMARK  12 active torsions:
REMARK  status: ('A' for Active; 'I' for Inactive)
REMARK    1  A    between atoms: C_1  and  S_2
REMARK    2  A    between atoms: S_2  and  C_3
REMARK    3  A    between atoms: S_2  and  C_10
REMARK    4  A    between atoms: C_3  and  C_4
REMARK    5  A    between atoms: C_4  and  CA_5
REMARK    6  A    between atoms: CA_5  and  C_6
REMARK    7  A    between atoms: CA_5  and  N_9
REMARK    8  A    between atoms: C_10  and  C_11
REMARK    9  A    between atoms: C_12  and  O_27
REMARK   10  A    between atoms: C_13  and  O_26
REMARK   11  A    between atoms: C_14  and  N_16
REMARK   12  A    between atoms: C_24  and  N_25
REMARK                            x       y       z     vdW  Elec       q    Type
REMARK                         _______ _______ _______ _____ _____    ______ ____
ROOT
ATOM      1  C   UNL     1      -1.230  12.056 -32.695  1.00  0.00    +0.161 C 
ATOM      2  C   UNL     1      -0.908  11.990 -31.201  1.00  0.00    +0.177 C 
ATOM      3  C   UNL     1      -1.294  13.374 -30.718  1.00  0.00    +0.195 C 
ATOM      4  C   UNL     1      -0.858  14.237 -31.909  1.00  0.00    +0.253 C 
ATOM      5  O   UNL     1      -0.994  13.432 -33.092  1.00  0.00    -0.347 OA
ENDROOT
BRANCH   4   6
ATOM      6  N   UNL     1      -1.644  15.450 -32.050  1.00  0.00    -0.286 N 
ATOM      7  C   UNL     1      -3.002  15.586 -31.941  1.00  0.00    +0.203 A 
ATOM      8  N   UNL     1      -3.392  16.825 -32.165  1.00  0.00    -0.231 NA
ATOM      9  C   UNL     1      -2.231  17.521 -32.425  1.00  0.00    +0.147 A 
ATOM     10  C   UNL     1      -1.130  16.683 -32.355  1.00  0.00    +0.167 A 
ATOM     11  N   UNL     1       0.162  17.013 -32.537  1.00  0.00    -0.216 NA
ATOM     12  C   UNL     1       0.275  18.329 -32.830  1.00  0.00    +0.225 A 
ATOM     13  N   UNL     1      -0.699  19.256 -32.935  1.00  0.00    -0.219 NA
ATOM     14  C   UNL     1      -1.980  18.869 -32.730  1.00  0.00    +0.147 A 
BRANCH  14  15
ATOM     15  N   UNL     1      -2.975  19.813 -32.827  1.00  0.00    -0.341 N 
ATOM     16  H   UNL     1      -3.934  19.521 -32.698  1.00  0.00    +0.144 HD
ATOM     17  H   UNL     1      -2.716  20.773 -32.981  1.00  0.00    +0.144 HD
ENDBRANCH  14  15
ENDBRANCH   4   6
BRANCH   3  18
ATOM     18  O   UNL     1      -0.619  13.678 -29.493  1.00  0.00    -0.385 OA
ATOM     19  H   UNL     1       0.256  14.047 -29.747  1.00  0.00    +0.210 HD
ENDBRANCH   3  18
BRANCH   2  20
ATOM     20  O   UNL     1       0.502  11.805 -31.000  1.00  0.00    -0.386 OA
ATOM     21  H   UNL     1       0.695  12.251 -30.150  1.00  0.00    +0.210 HD
ENDBRANCH   2  20
BRANCH   1  22
ATOM     22  C   UNL     1      -2.699  11.694 -32.964  1.00  0.00    +0.093 C 
BRANCH  22  24
ATOM     23  C   UNL     1      -4.232   9.433 -33.142  1.00  0.00    +0.073 C 
ATOM     24  S   UNL     1      -2.851  10.212 -34.008  1.00  0.00    -0.209 S 
BRANCH  24  25
ATOM     25  C   UNL     1      -3.809  10.902 -35.410  1.00  0.00    +0.061 C 
BRANCH  25  26
ATOM     26  C   UNL     1      -4.939  11.872 -35.070  1.00  0.00    +0.040 C 
BRANCH  26  27
ATOM     27  CA  UNL     1      -4.901  13.135 -35.934  1.00  0.00    +0.166 C 
BRANCH  27  28
ATOM     28  C   UNL     1      -6.046  13.050 -37.011  1.00  0.00    +0.372 C 
ATOM     29  O   UNL     1      -7.027  13.824 -36.796  1.00  0.00    -0.245 OA
ATOM     30  OXT UNL     1      -5.834  12.247 -37.960  1.00  0.00    -0.245 OA
ENDBRANCH  27  28
BRANCH  27  31
ATOM     31  N   UNL     1      -5.168  14.326 -35.057  1.00  0.00    -0.318 NA
ATOM     32  H1  UNL     1      -4.303  14.471 -34.532  1.00  0.00    +0.119 HD
ATOM     33  H2  UNL     1      -5.118  15.113 -35.727  1.00  0.00    +0.119 HD
ENDBRANCH  27  31
ENDBRANCH  26  27
ENDBRANCH  25  26
ENDBRANCH  24  25
ENDBRANCH  22  24
ENDBRANCH   1  22
TORSDOF 11
ENDMDL
MODEL 4
REMARK VINA RESULT:    -6.985      3.834      5.095
REMARK INTER + INTRA:         -11.193
REMARK INTER:                 -10.096
REMARK INTRA:                  -1.097
REMARK UNBOUND:                -0.533
REMARK  Name = 
REMARK  12 active torsions:
REMARK  status: ('A' for Active; 'I' for Inactive)
REMARK    1  A    between atoms: C_1  and  S_2
REMARK    2  A    between atoms: S_2  and  C_3
REMARK    3  A    between atoms: S_2  and  C_10
REMARK    4  A    between atoms: C_3  and  C_4
REMARK    5  A    between atoms: C_4  and  CA_5
REMARK    6  A    between atoms: CA_5  and  C_6
REMARK    7  A    between atoms: CA_5  and  N_9
REMARK    8  A    between atoms: C_10  and  C_11
REMARK    9  A    between atoms: C_12  and  O_27
REMARK   10  A    between atoms: C_13  and  O_26
REMARK   11  A    between atoms: C_14  and  N_16
REMARK   12  A    between atoms: C_24  and  N_25
REMARK                            x       y       z     vdW  Elec       q    Type
REMARK                         _______ _______ _______ _____ _____    ______ ____
ROOT
ATOM      1  C   UNL     1      -3.006  14.525 -32.587  1.00  0.00    +0.161 C 
ATOM      2  C   UNL     1      -3.243  15.821 -33.364  1.00  0.00    +0.177 C 
ATOM      3  C   UNL     1      -1.852  16.420 -33.440  1.00  0.00    +0.195 C 
ATOM      4  C   UNL     1      -1.288  16.039 -32.067  1.00  0.00    +0.253 C 
ATOM      5  O   UNL     1      -1.908  14.802 -31.678  1.00  0.00    -0.347 OA
ENDROOT
BRANCH   4   6
ATOM      6  N   UNL     1       0.156  15.883 -32.068  1.00  0.00    -0.286 N 
ATOM      7  C   UNL     1       0.873  14.721 -31.976  1.00  0.00    +0.203 A 
ATOM      8  N   UNL     1       2.172  14.943 -31.970  1.00  0.00    -0.231 NA
ATOM      9  C   UNL     1       2.298  16.313 -32.068  1.00  0.00    +0.147 A 
ATOM     10  C   UNL     1       1.053  16.917 -32.133  1.00  0.00    +0.167 A 
ATOM     11  N   UNL     1       0.787  18.232 -32.246  1.00  0.00    -0.216 NA
ATOM     12  C   UNL     1       1.937  18.945 -32.274  1.00  0.00    +0.225 A 
ATOM     13  N   UNL     1       3.208  18.496 -32.216  1.00  0.00    -0.219 NA
ATOM     14  C   UNL     1       3.415  17.163 -32.114  1.00  0.00    +0.147 A 
BRANCH  14  15
ATOM     15  N   UNL     1       4.711  16.702 -32.063  1.00  0.00    -0.341 N 
ATOM     16  H   UNL     1       4.868  15.717 -31.895  1.00  0.00    +0.144 HD
ATOM     17  H   UNL     1       5.460  17.349 -32.238  1.00  0.00    +0.144 HD
ENDBRANCH  14  15
ENDBRANCH   4   6
BRANCH   3  18
ATOM     18  O   UNL     1      -1.932  17.830 -33.674  1.00  0.00    -0.385 OA
ATOM     19  H   UNL     1      -2.807  17.988 -34.093  1.00  0.00    +0.210 HD
ENDBRANCH   3  18
BRANCH   2  20
ATOM     20  O   UNL     1      -4.089  16.708 -32.614  1.00  0.00    -0.386 OA
ATOM     21  H   UNL     1      -4.361  16.191 -31.829  1.00  0.00    +0.210 HD
ENDBRANCH   2  20
BRANCH   1  22
ATOM     22  C   UNL     1      -2.609  13.377 -33.528  1.00  0.00    +0.093 C 
BRANCH  22  24
ATOM     23  C   UNL     1      -4.400  12.436 -31.683  1.00  0.00    +0.073 C 
ATOM     24  S   UNL     1      -3.436  11.819 -33.081  1.00  0.00    -0.209 S 
BRANCH  24  25
ATOM     25  C   UNL     1      -4.790  11.806 -34.316  1.00  0.00    +0.061 C 
BRANCH  25  26
ATOM     26  C   UNL     1      -4.423  12.168 -35.754  1.00  0.00    +0.040 C 
BRANCH  26  27
ATOM     27  CA  UNL     1      -5.125  13.442 -36.230  1.00  0.00    +0.166 C 
BRANCH  27  28
ATOM     28  C   UNL     1      -6.254  13.048 -37.255  1.00  0.00    +0.372 C 
ATOM     29  O   UNL     1      -7.278  13.797 -37.221  1.00  0.00    -0.245 OA
ATOM     30  OXT UNL     1      -5.991  12.061 -37.994  1.00  0.00    -0.245 OA
ENDBRANCH  27  28
BRANCH  27  31
ATOM     31  N   UNL     1      -5.774  14.105 -35.048  1.00  0.00    -0.318 NA
ATOM     32  H1  UNL     1      -6.461  14.749 -35.447  1.00  0.00    +0.119 HD
ATOM     33  H2  UNL     1      -6.397  13.361 -34.689  1.00  0.00    +0.119 HD
ENDBRANCH  27  31
ENDBRANCH  26  27
ENDBRANCH  25  26
ENDBRANCH  24  25
ENDBRANCH  22  24
ENDBRANCH   1  22
TORSDOF 11
ENDMDL
MODEL 5
REMARK VINA RESULT:    -6.850      6.127      8.026
REMARK INTER + INTRA:         -10.986
REMARK INTER:                  -9.750
REMARK INTRA:                  -1.236
REMARK UNBOUND:                -0.533
REMARK  Name = 
REMARK  12 active torsions:
REMARK  status: ('A' for Active; 'I' for Inactive)
REMARK    1  A    between atoms: C_1  and  S_2
REMARK    2  A    between atoms: S_2  and  C_3
REMARK    3  A    between atoms: S_2  and  C_10
REMARK    4  A    between atoms: C_3  and  C_4
REMARK    5  A    between atoms: C_4  and  CA_5
REMARK    6  A    between atoms: CA_5  and  C_6
REMARK    7  A    between atoms: CA_5  and  N_9
REMARK    8  A    between atoms: C_10  and  C_11
REMARK    9  A    between atoms: C_12  and  O_27
REMARK   10  A    between atoms: C_13  and  O_26
REMARK   11  A    between atoms: C_14  and  N_16
REMARK   12  A    between atoms: C_24  and  N_25
REMARK                            x       y       z     vdW  Elec       q    Type
REMARK                         _______ _______ _______ _____ _____    ______ ____
ROOT
ATOM      1  C   UNL     1      -4.384   8.565 -33.644  1.00  0.00    +0.161 C 
ATOM      2  C   UNL     1      -5.848   8.762 -33.246  1.00  0.00    +0.177 C 
ATOM      3  C   UNL     1      -5.828  10.122 -32.576  1.00  0.00    +0.195 C 
ATOM      4  C   UNL     1      -4.478  10.076 -31.849  1.00  0.00    +0.253 C 
ATOM      5  O   UNL     1      -3.601   9.247 -32.630  1.00  0.00    -0.347 OA
ENDROOT
BRANCH   4   6
ATOM      6  N   UNL     1      -3.883  11.389 -31.674  1.00  0.00    -0.286 N 
ATOM      7  C   UNL     1      -4.293  12.575 -32.220  1.00  0.00    +0.203 A 
ATOM      8  N   UNL     1      -3.501  13.572 -31.883  1.00  0.00    -0.231 NA
ATOM      9  C   UNL     1      -2.538  13.004 -31.076  1.00  0.00    +0.147 A 
ATOM     10  C   UNL     1      -2.759  11.644 -30.931  1.00  0.00    +0.167 A 
ATOM     11  N   UNL     1      -2.034  10.769 -30.209  1.00  0.00    -0.216 NA
ATOM     12  C   UNL     1      -0.992  11.397 -29.617  1.00  0.00    +0.225 A 
ATOM     13  N   UNL     1      -0.653  12.702 -29.672  1.00  0.00    -0.219 NA
ATOM     14  C   UNL     1      -1.425  13.537 -30.405  1.00  0.00    +0.147 A 
BRANCH  14  15
ATOM     15  N   UNL     1      -1.087  14.869 -30.456  1.00  0.00    -0.341 N 
ATOM     16  H   UNL     1      -1.350  15.405 -31.272  1.00  0.00    +0.144 HD
ATOM     17  H   UNL     1      -0.626  15.281 -29.662  1.00  0.00    +0.144 HD
ENDBRANCH  14  15
ENDBRANCH   4   6
BRANCH   3  18
ATOM     18  O   UNL     1      -6.958  10.263 -31.709  1.00  0.00    -0.385 OA
ATOM     19  H   UNL     1      -6.826   9.618 -30.979  1.00  0.00    +0.210 HD
ENDBRANCH   3  18
BRANCH   2  20
ATOM     20  O   UNL     1      -6.242   7.775 -32.280  1.00  0.00    -0.386 OA
ATOM     21  H   UNL     1      -5.731   7.995 -31.473  1.00  0.00    +0.210 HD
ENDBRANCH   2  20
BRANCH   1  22
ATOM     22  C   UNL     1      -4.093   9.191 -35.017  1.00  0.00    +0.093 C 
BRANCH  22  24
ATOM     23  C   UNL     1      -1.836   9.596 -36.512  1.00  0.00    +0.073 C 
ATOM     24  S   UNL     1      -2.588  10.213 -34.990  1.00  0.00    -0.209 S 
BRANCH  24  25
ATOM     25  C   UNL     1      -3.249  11.780 -35.670  1.00  0.00    +0.061 C 
BRANCH  25  26
ATOM     26  C   UNL     1      -4.767  11.898 -35.797  1.00  0.00    +0.040 C 
BRANCH  26  27
ATOM     27  CA  UNL     1      -5.204  13.274 -36.305  1.00  0.00    +0.166 C 
BRANCH  27  28
ATOM     28  C   UNL     1      -6.344  13.084 -37.375  1.00  0.00    +0.372 C 
ATOM     29  O   UNL     1      -6.212  12.053 -38.103  1.00  0.00    -0.245 OA
ATOM     30  OXT UNL     1      -7.251  13.959 -37.357  1.00  0.00    -0.245 OA
ENDBRANCH  27  28
BRANCH  27  31
ATOM     31  N   UNL     1      -5.768  14.056 -35.151  1.00  0.00    -0.318 NA
ATOM     32  H1  UNL     1      -6.549  14.585 -35.544  1.00  0.00    +0.119 HD
ATOM     33  H2  UNL     1      -6.278  13.330 -34.618  1.00  0.00    +0.119 HD
ENDBRANCH  27  31
ENDBRANCH  26  27
ENDBRANCH  25  26
ENDBRANCH  24  25
ENDBRANCH  22  24
ENDBRANCH   1  22
TORSDOF 11
ENDMDL
MODEL 6
REMARK VINA RESULT:    -6.625      6.577      9.237
REMARK INTER + INTRA:         -10.643
REMARK INTER:                  -9.933
REMARK INTRA:                  -0.710
REMARK UNBOUND:                -0.533
REMARK  Name = 
REMARK  12 active torsions:
REMARK  status: ('A' for Active; 'I' for Inactive)
REMARK    1  A    between atoms: C_1  and  S_2
REMARK    2  A    between atoms: S_2  and  C_3
REMARK    3  A    between atoms: S_2  and  C_10
REMARK    4  A    between atoms: C_3  and  C_4
REMARK    5  A    between atoms: C_4  and  CA_5
REMARK    6  A    between atoms: CA_5  and  C_6
REMARK    7  A    between atoms: CA_5  and  N_9
REMARK    8  A    between atoms: C_10  and  C_11
REMARK    9  A    between atoms: C_12  and  O_27
REMARK   10  A    between atoms: C_13  and  O_26
REMARK   11  A    between atoms: C_14  and  N_16
REMARK   12  A    between atoms: C_24  and  N_25
REMARK                            x       y       z     vdW  Elec       q    Type
REMARK                         _______ _______ _______ _____ _____    ______ ____
ROOT
ATOM      1  C   UNL     1      -3.058  12.303 -31.092  1.00  0.00    +0.161 C 
ATOM      2  C   UNL     1      -1.696  12.233 -30.401  1.00  0.00    +0.177 C 
ATOM      3  C   UNL     1      -1.953  11.267 -29.260  1.00  0.00    +0.195 C 
ATOM      4  C   UNL     1      -3.381  11.654 -28.858  1.00  0.00    +0.253 C 
ATOM      5  O   UNL     1      -4.045  12.123 -30.043  1.00  0.00    -0.347 OA
ENDROOT
BRANCH   4   6
ATOM      6  N   UNL     1      -4.128  10.550 -28.283  1.00  0.00    -0.286 N 
ATOM      7  C   UNL     1      -4.703   9.495 -28.940  1.00  0.00    +0.203 A 
ATOM      8  N   UNL     1      -5.341   8.690 -28.113  1.00  0.00    -0.231 NA
ATOM      9  C   UNL     1      -5.165   9.249 -26.866  1.00  0.00    +0.147 A 
ATOM     10  C   UNL     1      -4.410  10.408 -26.949  1.00  0.00    +0.167 A 
ATOM     11  N   UNL     1      -4.027  11.210 -25.938  1.00  0.00    -0.216 NA
ATOM     12  C   UNL     1      -4.504  10.744 -24.761  1.00  0.00    +0.225 A 
ATOM     13  N   UNL     1      -5.249   9.642 -24.530  1.00  0.00    -0.219 NA
ATOM     14  C   UNL     1      -5.594   8.867 -25.584  1.00  0.00    +0.147 A 
BRANCH  14  15
ATOM     15  N   UNL     1      -6.346   7.738 -25.351  1.00  0.00    -0.341 N 
ATOM     16  H   UNL     1      -5.895   6.835 -25.410  1.00  0.00    +0.144 HD
ATOM     17  H   UNL     1      -7.311   7.848 -25.088  1.00  0.00    +0.144 HD
ENDBRANCH  14  15
ENDBRANCH   4   6
BRANCH   3  18
ATOM     18  O   UNL     1      -0.980  11.451 -28.227  1.00  0.00    -0.385 OA
ATOM     19  H   UNL     1      -1.439  11.928 -27.500  1.00  0.00    +0.210 HD
ENDBRANCH   3  18
BRANCH   2  20
ATOM     20  O   UNL     1      -1.345  13.514 -29.852  1.00  0.00    -0.386 OA
ATOM     21  H   UNL     1      -0.599  13.827 -30.404  1.00  0.00    +0.210 HD
ENDBRANCH   2  20
BRANCH   1  22
ATOM     22  C   UNL     1      -3.212  11.183 -32.132  1.00  0.00    +0.093 C 
BRANCH  22  24
ATOM     23  C   UNL     1      -2.335  10.154 -34.512  1.00  0.00    +0.073 C 
ATOM     24  S   UNL     1      -2.794  11.753 -33.808  1.00  0.00    -0.209 S 
BRANCH  24  25
ATOM     25  C   UNL     1      -4.471  11.862 -34.540  1.00  0.00    +0.061 C 
BRANCH  25  26
ATOM     26  C   UNL     1      -4.557  12.060 -36.052  1.00  0.00    +0.040 C 
BRANCH  26  27
ATOM     27  CA  UNL     1      -5.228  13.383 -36.429  1.00  0.00    +0.166 C 
BRANCH  27  28
ATOM     28  C   UNL     1      -6.398  13.091 -37.441  1.00  0.00    +0.372 C 
ATOM     29  O   UNL     1      -7.312  13.971 -37.455  1.00  0.00    -0.245 OA
ATOM     30  OXT UNL     1      -6.269  12.039 -38.125  1.00  0.00    -0.245 OA
ENDBRANCH  27  28
BRANCH  27  31
ATOM     31  N   UNL     1      -5.821  13.992 -35.189  1.00  0.00    -0.318 NA
ATOM     32  H1  UNL     1      -6.027  14.962 -35.440  1.00  0.00    +0.119 HD
ATOM     33  H2  UNL     1      -6.775  13.592 -35.178  1.00  0.00    +0.119 HD
ENDBRANCH  27  31
ENDBRANCH  26  27
ENDBRANCH  25  26
ENDBRANCH  24  25
ENDBRANCH  22  24
ENDBRANCH   1  22
TORSDOF 11
ENDMDL
MODEL 7
REMARK VINA RESULT:    -6.598      3.424      5.130
REMARK INTER + INTRA:         -10.602
REMARK INTER:                  -9.363
REMARK INTRA:                  -1.240
REMARK UNBOUND:                -0.533
REMARK  Name = 
REMARK  12 active torsions:
REMARK  status: ('A' for Active; 'I' for Inactive)
REMARK    1  A    between atoms: C_1  and  S_2
REMARK    2  A    between atoms: S_2  and  C_3
REMARK    3  A    between atoms: S_2  and  C_10
REMARK    4  A    between atoms: C_3  and  C_4
REMARK    5  A    between atoms: C_4  and  CA_5
REMARK    6  A    between atoms: CA_5  and  C_6
REMARK    7  A    between atoms: CA_5  and  N_9
REMARK    8  A    between atoms: C_10  and  C_11
REMARK    9  A    between atoms: C_12  and  O_27
REMARK   10  A    between atoms: C_13  and  O_26
REMARK   11  A    between atoms: C_14  and  N_16
REMARK   12  A    between atoms: C_24  and  N_25
REMARK                            x       y       z     vdW  Elec       q    Type
REMARK                         _______ _______ _______ _____ _____    ______ ____
ROOT
ATOM      1  C   UNL     1      -2.847  11.846 -31.392  1.00  0.00    +0.161 C 
ATOM      2  C   UNL     1      -4.113  12.236 -32.156  1.00  0.00    +0.177 C 
ATOM      3  C   UNL     1      -3.757  13.602 -32.711  1.00  0.00    +0.195 C 
ATOM      4  C   UNL     1      -2.936  14.187 -31.556  1.00  0.00    +0.253 C 
ATOM      5  O   UNL     1      -2.283  13.089 -30.897  1.00  0.00    -0.347 OA
ENDROOT
BRANCH   4   6
ATOM      6  N   UNL     1      -1.944  15.152 -31.996  1.00  0.00    -0.286 N 
ATOM      7  C   UNL     1      -0.611  14.939 -32.223  1.00  0.00    +0.203 A 
ATOM      8  N   UNL     1       0.011  16.045 -32.579  1.00  0.00    -0.231 NA
ATOM      9  C   UNL     1      -0.968  17.016 -32.587  1.00  0.00    +0.147 A 
ATOM     10  C   UNL     1      -2.194  16.479 -32.229  1.00  0.00    +0.167 A 
ATOM     11  N   UNL     1      -3.375  17.121 -32.142  1.00  0.00    -0.216 NA
ATOM     12  C   UNL     1      -3.222  18.431 -32.444  1.00  0.00    +0.225 A 
ATOM     13  N   UNL     1      -2.099  19.088 -32.802  1.00  0.00    -0.219 NA
ATOM     14  C   UNL     1      -0.943  18.388 -32.885  1.00  0.00    +0.147 A 
BRANCH  14  15
ATOM     15  N   UNL     1       0.202  19.053 -33.258  1.00  0.00    -0.341 N 
ATOM     16  H   UNL     1       0.938  18.532 -33.714  1.00  0.00    +0.144 HD
ATOM     17  H   UNL     1       0.254  20.046 -33.105  1.00  0.00    +0.144 HD
ENDBRANCH  14  15
ENDBRANCH   4   6
BRANCH   3  18
ATOM     18  O   UNL     1      -4.946  14.336 -33.018  1.00  0.00    -0.385 OA
ATOM     19  H   UNL     1      -4.825  15.230 -32.626  1.00  0.00    +0.210 HD
ENDBRANCH   3  18
BRANCH   2  20
ATOM     20  O   UNL     1      -5.221  12.376 -31.253  1.00  0.00    -0.386 OA
ATOM     21  H   UNL     1      -5.534  11.462 -31.095  1.00  0.00    +0.210 HD
ENDBRANCH   2  20
BRANCH   1  22
ATOM     22  C   UNL     1      -1.829  11.160 -32.316  1.00  0.00    +0.093 C 
BRANCH  22  24
ATOM     23  C   UNL     1      -2.237   9.495 -30.181  1.00  0.00    +0.073 C 
ATOM     24  S   UNL     1      -1.563   9.420 -31.855  1.00  0.00    -0.209 S 
BRANCH  24  25
ATOM     25  C   UNL     1      -3.015   8.646 -32.662  1.00  0.00    +0.061 C 
BRANCH  25  26
ATOM     26  C   UNL     1      -2.851   8.205 -34.115  1.00  0.00    +0.040 C 
BRANCH  26  27
ATOM     27  CA  UNL     1      -4.011   8.668 -34.999  1.00  0.00    +0.166 C 
BRANCH  27  28
ATOM     28  C   UNL     1      -3.718  10.132 -35.498  1.00  0.00    +0.372 C 
ATOM     29  O   UNL     1      -2.619  10.265 -36.118  1.00  0.00    -0.245 OA
ATOM     30  OXT UNL     1      -4.618  10.979 -35.243  1.00  0.00    -0.245 OA
ENDBRANCH  27  28
BRANCH  27  31
ATOM     31  N   UNL     1      -4.090   7.768 -36.201  1.00  0.00    -0.318 NA
ATOM     32  H1  UNL     1      -4.724   7.014 -35.928  1.00  0.00    +0.119 HD
ATOM     33  H2  UNL     1      -4.698   8.306 -36.842  1.00  0.00    +0.119 HD
ENDBRANCH  27  31
ENDBRANCH  26  27
ENDBRANCH  25  26
ENDBRANCH  24  25
ENDBRANCH  22  24
ENDBRANCH   1  22
TORSDOF 11
ENDMDL
MODEL 8
REMARK VINA RESULT:    -6.590      3.708      5.445
REMARK INTER + INTRA:         -10.590
REMARK INTER:                  -9.572
REMARK INTRA:                  -1.018
REMARK UNBOUND:                -0.533
REMARK  Name = 
REMARK  12 active torsions:
REMARK  status: ('A' for Active; 'I' for Inactive)
REMARK    1  A    between atoms: C_1  and  S_2
REMARK    2  A    between atoms: S_2  and  C_3
REMARK    3  A    between atoms: S_2  and  C_10
REMARK    4  A    between atoms: C_3  and  C_4
REMARK    5  A    between atoms: C_4  and  CA_5
REMARK    6  A    between atoms: CA_5  and  C_6
REMARK    7  A    between atoms: CA_5  and  N_9
REMARK    8  A    between atoms: C_10  and  C_11
REMARK    9  A    between atoms: C_12  and  O_27
REMARK   10  A    between atoms: C_13  and  O_26
REMARK   11  A    between atoms: C_14  and  N_16
REMARK   12  A    between atoms: C_24  and  N_25
REMARK                            x       y       z     vdW  Elec       q    Type
REMARK                         _______ _______ _______ _____ _____    ______ ____
ROOT
ATOM      1  C   UNL     1      -3.714  13.251 -32.752  1.00  0.00    +0.161 C 
ATOM      2  C   UNL     1      -4.124  14.180 -33.894  1.00  0.00    +0.177 C 
ATOM      3  C   UNL     1      -2.964  15.155 -33.960  1.00  0.00    +0.195 C 
ATOM      4  C   UNL     1      -2.622  15.311 -32.474  1.00  0.00    +0.253 C 
ATOM      5  O   UNL     1      -2.951  14.069 -31.827  1.00  0.00    -0.347 OA
ENDROOT
BRANCH   4   6
ATOM      6  N   UNL     1      -1.223  15.626 -32.242  1.00  0.00    -0.286 N 
ATOM      7  C   UNL     1      -0.244  14.795 -31.768  1.00  0.00    +0.203 A 
ATOM      8  N   UNL     1       0.911  15.418 -31.643  1.00  0.00    -0.231 NA
ATOM      9  C   UNL     1       0.666  16.708 -32.061  1.00  0.00    +0.147 A 
ATOM     10  C   UNL     1      -0.657  16.858 -32.441  1.00  0.00    +0.167 A 
ATOM     11  N   UNL     1      -1.252  17.970 -32.914  1.00  0.00    -0.216 NA
ATOM     12  C   UNL     1      -0.367  18.992 -32.964  1.00  0.00    +0.225 A 
ATOM     13  N   UNL     1       0.940  18.994 -32.626  1.00  0.00    -0.219 NA
ATOM     14  C   UNL     1       1.486  17.844 -32.168  1.00  0.00    +0.147 A 
BRANCH  14  15
ATOM     15  N   UNL     1       2.820  17.840 -31.830  1.00  0.00    -0.341 N 
ATOM     16  H   UNL     1       3.164  17.105 -31.227  1.00  0.00    +0.144 HD
ATOM     17  H   UNL     1       3.420  18.542 -32.228  1.00  0.00    +0.144 HD
ENDBRANCH  14  15
ENDBRANCH   4   6
BRANCH   3  18
ATOM     18  O   UNL     1      -3.372  16.368 -34.600  1.00  0.00    -0.385 OA
ATOM     19  H   UNL     1      -3.767  16.104 -35.461  1.00  0.00    +0.210 HD
ENDBRANCH   3  18
BRANCH   2  20
ATOM     20  O   UNL     1      -5.317  14.903 -33.551  1.00  0.00    -0.386 OA
ATOM     21  H   UNL     1      -5.129  15.831 -33.799  1.00  0.00    +0.210 HD
ENDBRANCH   2  20
BRANCH   1  22
ATOM     22  C   UNL     1      -2.832  12.100 -33.259  1.00  0.00    +0.093 C 
BRANCH  22  24
ATOM     23  C   UNL     1      -2.275  10.034 -34.966  1.00  0.00    +0.073 C 
ATOM     24  S   UNL     1      -3.555  11.284 -34.715  1.00  0.00    -0.209 S 
BRANCH  24  25
ATOM     25  C   UNL     1      -4.788  10.200 -33.899  1.00  0.00    +0.061 C 
BRANCH  25  26
ATOM     26  C   UNL     1      -4.470   9.731 -32.481  1.00  0.00    +0.040 C 
BRANCH  26  27
ATOM     27  CA  UNL     1      -5.733   9.510 -31.644  1.00  0.00    +0.166 C 
BRANCH  27  28
ATOM     28  C   UNL     1      -5.319   9.333 -30.135  1.00  0.00    +0.372 C 
ATOM     29  O   UNL     1      -4.774  10.355 -29.617  1.00  0.00    -0.245 OA
ATOM     30  OXT UNL     1      -5.602   8.215 -29.626  1.00  0.00    -0.245 OA
ENDBRANCH  27  28
BRANCH  27  31
ATOM     31  N   UNL     1      -6.602  10.731 -31.753  1.00  0.00    -0.318 NA
ATOM     32  H1  UNL     1      -5.951  11.517 -31.819  1.00  0.00    +0.119 HD
ATOM     33  H2  UNL     1      -6.937  10.680 -32.731  1.00  0.00    +0.119 HD
ENDBRANCH  27  31
ENDBRANCH  26  27
ENDBRANCH  25  26
ENDBRANCH  24  25
ENDBRANCH  22  24
ENDBRANCH   1  22
TORSDOF 11
ENDMDL
MODEL 9
REMARK VINA RESULT:    -6.558      5.498      8.204
REMARK INTER + INTRA:         -10.542
REMARK INTER:                  -9.102
REMARK INTRA:                  -1.440
REMARK UNBOUND:                -0.533
REMARK  Name = 
REMARK  12 active torsions:
REMARK  status: ('A' for Active; 'I' for Inactive)
REMARK    1  A    between atoms: C_1  and  S_2
REMARK    2  A    between atoms: S_2  and  C_3
REMARK    3  A    between atoms: S_2  and  C_10
REMARK    4  A    between atoms: C_3  and  C_4
REMARK    5  A    between atoms: C_4  and  CA_5
REMARK    6  A    between atoms: CA_5  and  C_6
REMARK    7  A    between atoms: CA_5  and  N_9
REMARK    8  A    between atoms: C_10  and  C_11
REMARK    9  A    between atoms: C_12  and  O_27
REMARK   10  A    between atoms: C_13  and  O_26
REMARK   11  A    between atoms: C_14  and  N_16
REMARK   12  A    between atoms: C_24  and  N_25
REMARK                            x       y       z     vdW  Elec       q    Type
REMARK                         _______ _______ _______ _____ _____    ______ ____
ROOT
ATOM      1  C   UNL     1      -4.723  10.216 -30.354  1.00  0.00    +0.161 C 
ATOM      2  C   UNL     1      -5.214  10.241 -31.801  1.00  0.00    +0.177 C 
ATOM      3  C   UNL     1      -4.364  11.333 -32.420  1.00  0.00    +0.195 C 
ATOM      4  C   UNL     1      -4.276  12.334 -31.262  1.00  0.00    +0.253 C 
ATOM      5  O   UNL     1      -4.340  11.580 -30.040  1.00  0.00    -0.347 OA
ENDROOT
BRANCH   4   6
ATOM      6  N   UNL     1      -3.059  13.126 -31.286  1.00  0.00    -0.286 N 
ATOM      7  C   UNL     1      -1.943  12.970 -30.508  1.00  0.00    +0.203 A 
ATOM      8  N   UNL     1      -1.033  13.888 -30.764  1.00  0.00    -0.231 NA
ATOM      9  C   UNL     1      -1.585  14.669 -31.757  1.00  0.00    +0.147 A 
ATOM     10  C   UNL     1      -2.847  14.209 -32.098  1.00  0.00    +0.167 A 
ATOM     11  N   UNL     1      -3.675  14.711 -33.033  1.00  0.00    -0.216 NA
ATOM     12  C   UNL     1      -3.117  15.790 -33.627  1.00  0.00    +0.225 A 
ATOM     13  N   UNL     1      -1.910  16.349 -33.397  1.00  0.00    -0.219 NA
ATOM     14  C   UNL     1      -1.114  15.794 -32.454  1.00  0.00    +0.147 A 
BRANCH  14  15
ATOM     15  N   UNL     1       0.120  16.356 -32.223  1.00  0.00    -0.341 N 
ATOM     16  H   UNL     1       0.641  16.720 -33.008  1.00  0.00    +0.144 HD
ATOM     17  H   UNL     1       0.448  16.425 -31.274  1.00  0.00    +0.144 HD
ENDBRANCH  14  15
ENDBRANCH   4   6
BRANCH   3  18
ATOM     18  O   UNL     1      -4.996  11.848 -33.597  1.00  0.00    -0.385 OA
ATOM     19  H   UNL     1      -4.790  11.212 -34.318  1.00  0.00    +0.210 HD
ENDBRANCH   3  18
BRANCH   2  20
ATOM     20  O   UNL     1      -6.593  10.640 -31.857  1.00  0.00    -0.386 OA
ATOM     21  H   UNL     1      -6.978  10.333 -31.011  1.00  0.00    +0.210 HD
ENDBRANCH   2  20
BRANCH   1  22
ATOM     22  C   UNL     1      -3.503   9.296 -30.196  1.00  0.00    +0.093 C 
BRANCH  22  24
ATOM     23  C   UNL     1      -2.531   7.819 -28.106  1.00  0.00    +0.073 C 
ATOM     24  S   UNL     1      -3.911   7.783 -29.272  1.00  0.00    -0.209 S 
BRANCH  24  25
ATOM     25  C   UNL     1      -5.196   8.432 -28.138  1.00  0.00    +0.061 C 
BRANCH  25  26
ATOM     26  C   UNL     1      -4.757   8.783 -26.718  1.00  0.00    +0.040 C 
BRANCH  26  27
ATOM     27  CA  UNL     1      -5.009  10.255 -26.378  1.00  0.00    +0.166 C 
BRANCH  27  28
ATOM     28  C   UNL     1      -5.026  10.419 -24.812  1.00  0.00    +0.372 C 
ATOM     29  O   UNL     1      -4.391   9.519 -24.183  1.00  0.00    -0.245 OA
ATOM     30  OXT UNL     1      -5.643  11.432 -24.384  1.00  0.00    -0.245 OA
ENDBRANCH  27  28
BRANCH  27  31
ATOM     31  N   UNL     1      -3.874  11.076 -26.925  1.00  0.00    -0.318 NA
ATOM     32  H1  UNL     1      -3.078  10.865 -26.319  1.00  0.00    +0.119 HD
ATOM     33  H2  UNL     1      -3.609  10.551 -27.776  1.00  0.00    +0.119 HD
ENDBRANCH  27  31
ENDBRANCH  26  27
ENDBRANCH  25  26
ENDBRANCH  24  25
ENDBRANCH  22  24
ENDBRANCH   1  22
TORSDOF 11
ENDMDL
