MODEL 1
REMARK VINA RESULT:    -8.090      0.000      0.000
REMARK INTER + INTRA:         -13.230
REMARK INTER:                 -12.583
REMARK INTRA:                  -0.647
REMARK UNBOUND:                -0.647
REMARK  Name = 
REMARK  12 active torsions:
REMARK  status: ('A' for Active; 'I' for Inactive)
REMARK    1  A    between atoms: C_3  and  N_26
REMARK    2  A    between atoms: N_7  and  C_10
REMARK    3  A    between atoms: C_11  and  O_25
REMARK    4  A    between atoms: C_12  and  O_24
REMARK    5  A    between atoms: C_13  and  C_15
REMARK    6  A    between atoms: C_15  and  S_16
REMARK    7  A    between atoms: S_16  and  C_17
REMARK    8  A    between atoms: C_17  and  C_18
REMARK    9  A    between atoms: C_18  and  C_19
REMARK   10  A    between atoms: C_19  and  C_20
REMARK   11  A    between atoms: C_19  and  N_23
REMARK   12  A    between atoms: C_20  and  O_22
REMARK                            x       y       z     vdW  Elec       q    Type
REMARK                         _______ _______ _______ _____ _____    ______ ____
ROOT
ATOM      1  C   UNK     1      -2.506  19.079 -33.054  1.00  0.00    +0.253 C 
ATOM      2  C   UNK     1      -1.163  18.387 -32.805  1.00  0.00    +0.195 C 
ATOM      3  C   UNK     1      -1.428  17.023 -33.420  1.00  0.00    +0.177 C 
ATOM      4  C   UNK     1      -2.880  16.756 -33.018  1.00  0.00    +0.162 C 
ATOM      5  O   UNK     1      -3.516  18.055 -32.880  1.00  0.00    -0.347 OA
ENDROOT
BRANCH   1  12
ATOM      6  C   UNK     1      -3.998  23.125 -33.668  1.00  0.00    +0.225 A 
ATOM      7  N   UNK     1      -4.173  23.913 -32.585  1.00  0.00    -0.219 NA
ATOM      8  C   UNK     1      -3.868  23.410 -31.367  1.00  0.00    +0.147 A 
ATOM      9  C   UNK     1      -3.387  22.092 -31.288  1.00  0.00    +0.147 A 
ATOM     10  C   UNK     1      -3.260  21.403 -32.483  1.00  0.00    +0.167 A 
ATOM     11  N   UNK     1      -3.539  21.856 -33.718  1.00  0.00    -0.216 NA
ATOM     12  N   UNK     1      -2.780  20.169 -32.133  1.00  0.00    -0.286 N 
ATOM     13  C   UNK     1      -2.652  20.155 -30.769  1.00  0.00    +0.203 A 
ATOM     14  N   UNK     1      -2.996  21.304 -30.226  1.00  0.00    -0.231 NA
BRANCH   8  15
ATOM     15  N   UNK     1      -4.044  24.214 -30.264  1.00  0.00    -0.341 N 
ATOM     16  H   UNK     1      -4.179  25.201 -30.409  1.00  0.00    +0.144 HD
ATOM     17  H   UNK     1      -4.048  23.794 -29.346  1.00  0.00    +0.144 HD
ENDBRANCH   8  15
ENDBRANCH   1  12
BRANCH   3  18
ATOM     18  O   UNK     1      -1.367  17.087 -34.854  1.00  0.00    -0.386 OA
ATOM     19  H   UNK     1      -0.831  16.314 -35.137  1.00  0.00    +0.210 HD
ENDBRANCH   3  18
BRANCH   2  20
ATOM     20  O   UNK     1      -0.019  19.018 -33.369  1.00  0.00    -0.385 OA
ATOM     21  H   UNK     1      -0.251  19.306 -34.275  1.00  0.00    +0.210 HD
ENDBRANCH   2  20
BRANCH   4  22
ATOM     22  C   UNK     1      -3.062  15.995 -31.700  1.00  0.00    +0.103 C 
BRANCH  22  23
ATOM     23  S   UNK     1      -3.487  14.227 -31.887  1.00  0.00    -0.158 S 
BRANCH  23  24
ATOM     24  C   UNK     1      -4.096  14.193 -33.610  1.00  0.00    +0.071 C 
BRANCH  24  25
ATOM     25  C   UNK     1      -3.740  12.985 -34.481  1.00  0.00    +0.040 C 
BRANCH  25  26
ATOM     26  C   UNK     1      -4.916  12.302 -35.199  1.00  0.00    +0.161 C 
BRANCH  26  27
ATOM     27  N   UNK     1      -4.485  11.046 -35.863  1.00  0.00    -0.318 NA
ATOM     28  H   UNK     1      -4.273  10.367 -35.124  1.00  0.00    +0.119 HD
ATOM     29  H   UNK     1      -3.592  11.235 -36.328  1.00  0.00    +0.119 HD
ENDBRANCH  26  27
BRANCH  26  30
ATOM     30  C   UNK     1      -5.568  13.223 -36.247  1.00  0.00    +0.322 C 
ATOM     31  O   UNK     1      -5.288  13.276 -37.437  1.00  0.00    -0.249 OA
BRANCH  30  32
ATOM     32  O   UNK     1      -6.596  13.950 -35.771  1.00  0.00    -0.480 OA
ATOM     33  H   UNK     1      -7.124  13.300 -35.261  1.00  0.00    +0.295 HD
ENDBRANCH  30  32
ENDBRANCH  26  30
ENDBRANCH  25  26
ENDBRANCH  24  25
ENDBRANCH  23  24
ENDBRANCH  22  23
ENDBRANCH   4  22
TORSDOF 12
ENDMDL
MODEL 2
REMARK VINA RESULT:    -7.251      2.633      2.907
REMARK INTER + INTRA:         -11.925
REMARK INTER:                 -11.310
REMARK INTRA:                  -0.615
REMARK UNBOUND:                -0.647
REMARK  Name = 
REMARK  12 active torsions:
REMARK  status: ('A' for Active; 'I' for Inactive)
REMARK    1  A    between atoms: C_3  and  N_26
REMARK    2  A    between atoms: N_7  and  C_10
REMARK    3  A    between atoms: C_11  and  O_25
REMARK    4  A    between atoms: C_12  and  O_24
REMARK    5  A    between atoms: C_13  and  C_15
REMARK    6  A    between atoms: C_15  and  S_16
REMARK    7  A    between atoms: S_16  and  C_17
REMARK    8  A    between atoms: C_17  and  C_18
REMARK    9  A    between atoms: C_18  and  C_19
REMARK   10  A    between atoms: C_19  and  C_20
REMARK   11  A    between atoms: C_19  and  N_23
REMARK   12  A    between atoms: C_20  and  O_22
REMARK                            x       y       z     vdW  Elec       q    Type
REMARK                         _______ _______ _______ _____ _____    ______ ____
ROOT
ATOM      1  C   UNK     1      -2.543  19.009 -33.014  1.00  0.00    +0.253 C 
ATOM      2  C   UNK     1      -1.180  18.348 -32.792  1.00  0.00    +0.195 C 
ATOM      3  C   UNK     1      -1.446  16.956 -33.344  1.00  0.00    +0.177 C 
ATOM      4  C   UNK     1      -2.877  16.683 -32.873  1.00  0.00    +0.162 C 
ATOM      5  O   UNK     1      -3.528  17.978 -32.760  1.00  0.00    -0.347 OA
ENDROOT
BRANCH   1  12
ATOM      6  C   UNK     1      -4.048  23.033 -33.734  1.00  0.00    +0.225 A 
ATOM      7  N   UNK     1      -4.200  23.857 -32.675  1.00  0.00    -0.219 NA
ATOM      8  C   UNK     1      -3.871  23.395 -31.448  1.00  0.00    +0.147 A 
ATOM      9  C   UNK     1      -3.388  22.081 -31.334  1.00  0.00    +0.147 A 
ATOM     10  C   UNK     1      -3.285  21.351 -32.506  1.00  0.00    +0.167 A 
ATOM     11  N   UNK     1      -3.589  21.762 -33.751  1.00  0.00    -0.216 NA
ATOM     12  N   UNK     1      -2.798  20.130 -32.125  1.00  0.00    -0.286 N 
ATOM     13  C   UNK     1      -2.642  20.162 -30.764  1.00  0.00    +0.203 A 
ATOM     14  N   UNK     1      -2.975  21.329 -30.253  1.00  0.00    -0.231 NA
BRANCH   8  15
ATOM     15  N   UNK     1      -4.024  24.236 -30.369  1.00  0.00    -0.341 N 
ATOM     16  H   UNK     1      -4.939  24.325 -29.959  1.00  0.00    +0.144 HD
ATOM     17  H   UNK     1      -3.218  24.728 -30.011  1.00  0.00    +0.144 HD
ENDBRANCH   8  15
ENDBRANCH   1  12
BRANCH   3  18
ATOM     18  O   UNK     1      -1.443  16.966 -34.780  1.00  0.00    -0.386 OA
ATOM     19  H   UNK     1      -2.199  17.532 -35.048  1.00  0.00    +0.210 HD
ENDBRANCH   3  18
BRANCH   2  20
ATOM     20  O   UNK     1      -0.069  18.972 -33.425  1.00  0.00    -0.385 OA
ATOM     21  H   UNK     1      -0.113  18.765 -34.381  1.00  0.00    +0.210 HD
ENDBRANCH   2  20
BRANCH   4  22
ATOM     22  C   UNK     1      -2.994  15.972 -31.522  1.00  0.00    +0.103 C 
BRANCH  22  23
ATOM     23  S   UNK     1      -2.439  14.230 -31.520  1.00  0.00    -0.158 S 
BRANCH  23  24
ATOM     24  C   UNK     1      -4.042  13.352 -31.525  1.00  0.00    +0.071 C 
BRANCH  24  25
ATOM     25  C   UNK     1      -4.203  12.141 -32.448  1.00  0.00    +0.040 C 
BRANCH  25  26
ATOM     26  C   UNK     1      -4.621  10.826 -31.769  1.00  0.00    +0.161 C 
BRANCH  26  27
ATOM     27  N   UNK     1      -6.098  10.718 -31.671  1.00  0.00    -0.318 NA
ATOM     28  H   UNK     1      -6.357  10.925 -30.700  1.00  0.00    +0.119 HD
ATOM     29  H   UNK     1      -6.345   9.735 -31.818  1.00  0.00    +0.119 HD
ENDBRANCH  26  27
BRANCH  26  30
ATOM     30  C   UNK     1      -4.014  10.683 -30.361  1.00  0.00    +0.322 C 
ATOM     31  O   UNK     1      -4.618  10.775 -29.301  1.00  0.00    -0.249 OA
BRANCH  30  32
ATOM     32  O   UNK     1      -2.713  10.337 -30.360  1.00  0.00    -0.480 OA
ATOM     33  H   UNK     1      -2.693   9.510 -30.887  1.00  0.00    +0.295 HD
ENDBRANCH  30  32
ENDBRANCH  26  30
ENDBRANCH  25  26
ENDBRANCH  24  25
ENDBRANCH  23  24
ENDBRANCH  22  23
ENDBRANCH   4  22
TORSDOF 12
ENDMDL
MODEL 3
REMARK VINA RESULT:    -7.114      3.214      4.831
REMARK INTER + INTRA:         -11.711
REMARK INTER:                 -10.318
REMARK INTRA:                  -1.393
REMARK UNBOUND:                -0.647
REMARK  Name = 
REMARK  12 active torsions:
REMARK  status: ('A' for Active; 'I' for Inactive)
REMARK    1  A    between atoms: C_3  and  N_26
REMARK    2  A    between atoms: N_7  and  C_10
REMARK    3  A    between atoms: C_11  and  O_25
REMARK    4  A    between atoms: C_12  and  O_24
REMARK    5  A    between atoms: C_13  and  C_15
REMARK    6  A    between atoms: C_15  and  S_16
REMARK    7  A    between atoms: S_16  and  C_17
REMARK    8  A    between atoms: C_17  and  C_18
REMARK    9  A    between atoms: C_18  and  C_19
REMARK   10  A    between atoms: C_19  and  C_20
REMARK   11  A    between atoms: C_19  and  N_23
REMARK   12  A    between atoms: C_20  and  O_22
REMARK                            x       y       z     vdW  Elec       q    Type
REMARK                         _______ _______ _______ _____ _____    ______ ____
ROOT
ATOM      1  C   UNK     1      -2.864  14.450 -31.497  1.00  0.00    +0.253 C 
ATOM      2  C   UNK     1      -3.669  13.807 -32.629  1.00  0.00    +0.195 C 
ATOM      3  C   UNK     1      -4.083  12.498 -31.976  1.00  0.00    +0.177 C 
ATOM      4  C   UNK     1      -2.833  12.119 -31.179  1.00  0.00    +0.162 C 
ATOM      5  O   UNK     1      -2.162  13.364 -30.846  1.00  0.00    -0.347 OA
ENDROOT
BRANCH   1  12
ATOM      6  C   UNK     1      -3.194  18.694 -32.423  1.00  0.00    +0.225 A 
ATOM      7  N   UNK     1      -2.081  19.351 -32.814  1.00  0.00    -0.219 NA
ATOM      8  C   UNK     1      -0.924  18.659 -32.906  1.00  0.00    +0.147 A 
ATOM      9  C   UNK     1      -0.935  17.290 -32.589  1.00  0.00    +0.147 A 
ATOM     10  C   UNK     1      -2.151  16.750 -32.202  1.00  0.00    +0.167 A 
ATOM     11  N   UNK     1      -3.331  17.388 -32.102  1.00  0.00    -0.216 NA
ATOM     12  N   UNK     1      -1.892  15.428 -31.956  1.00  0.00    -0.286 N 
ATOM     13  C   UNK     1      -0.556  15.226 -32.184  1.00  0.00    +0.203 A 
ATOM     14  N   UNK     1       0.051  16.326 -32.581  1.00  0.00    -0.231 NA
BRANCH   8  15
ATOM     15  N   UNK     1       0.210  19.328 -33.306  1.00  0.00    -0.341 N 
ATOM     16  H   UNK     1       0.869  19.616 -32.601  1.00  0.00    +0.144 HD
ATOM     17  H   UNK     1       0.358  19.500 -34.290  1.00  0.00    +0.144 HD
ENDBRANCH   8  15
ENDBRANCH   1  12
BRANCH   3  18
ATOM     18  O   UNK     1      -5.158  12.707 -31.047  1.00  0.00    -0.386 OA
ATOM     19  H   UNK     1      -5.833  13.233 -31.529  1.00  0.00    +0.210 HD
ENDBRANCH   3  18
BRANCH   2  20
ATOM     20  O   UNK     1      -4.788  14.548 -33.102  1.00  0.00    -0.385 OA
ATOM     21  H   UNK     1      -5.593  14.019 -32.929  1.00  0.00    +0.210 HD
ENDBRANCH   2  20
BRANCH   4  22
ATOM     22  C   UNK     1      -1.835  11.223 -31.920  1.00  0.00    +0.103 C 
BRANCH  22  23
ATOM     23  S   UNK     1      -2.592   9.888 -32.914  1.00  0.00    -0.158 S 
BRANCH  23  24
ATOM     24  C   UNK     1      -1.868  10.222 -34.558  1.00  0.00    +0.071 C 
BRANCH  24  25
ATOM     25  C   UNK     1      -2.650  11.114 -35.527  1.00  0.00    +0.040 C 
BRANCH  25  26
ATOM     26  C   UNK     1      -4.177  11.129 -35.345  1.00  0.00    +0.161 C 
BRANCH  26  27
ATOM     27  N   UNK     1      -4.774   9.817 -35.700  1.00  0.00    -0.318 NA
ATOM     28  H   UNK     1      -5.716   9.997 -36.064  1.00  0.00    +0.119 HD
ATOM     29  H   UNK     1      -4.910   9.296 -34.829  1.00  0.00    +0.119 HD
ENDBRANCH  26  27
BRANCH  26  30
ATOM     30  C   UNK     1      -4.849  12.229 -36.187  1.00  0.00    +0.322 C 
ATOM     31  O   UNK     1      -4.818  12.327 -37.406  1.00  0.00    -0.249 OA
BRANCH  30  32
ATOM     32  O   UNK     1      -5.602  13.083 -35.469  1.00  0.00    -0.480 OA
ATOM     33  H   UNK     1      -5.681  13.869 -36.050  1.00  0.00    +0.295 HD
ENDBRANCH  30  32
ENDBRANCH  26  30
ENDBRANCH  25  26
ENDBRANCH  24  25
ENDBRANCH  23  24
ENDBRANCH  22  23
ENDBRANCH   4  22
TORSDOF 12
ENDMDL
MODEL 4
REMARK VINA RESULT:    -7.079      3.695      5.424
REMARK INTER + INTRA:         -11.658
REMARK INTER:                 -10.256
REMARK INTRA:                  -1.401
REMARK UNBOUND:                -0.647
REMARK  Name = 
REMARK  12 active torsions:
REMARK  status: ('A' for Active; 'I' for Inactive)
REMARK    1  A    between atoms: C_3  and  N_26
REMARK    2  A    between atoms: N_7  and  C_10
REMARK    3  A    between atoms: C_11  and  O_25
REMARK    4  A    between atoms: C_12  and  O_24
REMARK    5  A    between atoms: C_13  and  C_15
REMARK    6  A    between atoms: C_15  and  S_16
REMARK    7  A    between atoms: S_16  and  C_17
REMARK    8  A    between atoms: C_17  and  C_18
REMARK    9  A    between atoms: C_18  and  C_19
REMARK   10  A    between atoms: C_19  and  C_20
REMARK   11  A    between atoms: C_19  and  N_23
REMARK   12  A    between atoms: C_20  and  O_22
REMARK                            x       y       z     vdW  Elec       q    Type
REMARK                         _______ _______ _______ _____ _____    ______ ____
ROOT
ATOM      1  C   UNK     1      -2.929  14.596 -31.629  1.00  0.00    +0.253 C 
ATOM      2  C   UNK     1      -3.762  14.036 -32.784  1.00  0.00    +0.195 C 
ATOM      3  C   UNK     1      -4.238  12.724 -32.181  1.00  0.00    +0.177 C 
ATOM      4  C   UNK     1      -3.008  12.255 -31.400  1.00  0.00    +0.162 C 
ATOM      5  O   UNK     1      -2.279  13.454 -31.020  1.00  0.00    -0.347 OA
ENDROOT
BRANCH   1  12
ATOM      6  C   UNK     1      -3.069  18.874 -32.440  1.00  0.00    +0.225 A 
ATOM      7  N   UNK     1      -1.925  19.494 -32.801  1.00  0.00    -0.219 NA
ATOM      8  C   UNK     1      -0.797  18.755 -32.901  1.00  0.00    +0.147 A 
ATOM      9  C   UNK     1      -0.869  17.380 -32.622  1.00  0.00    +0.147 A 
ATOM     10  C   UNK     1      -2.111  16.882 -32.263  1.00  0.00    +0.167 A 
ATOM     11  N   UNK     1      -3.264  17.567 -32.156  1.00  0.00    -0.216 NA
ATOM     12  N   UNK     1      -1.911  15.544 -32.051  1.00  0.00    -0.286 N 
ATOM     13  C   UNK     1      -0.582  15.292 -32.271  1.00  0.00    +0.203 A 
ATOM     14  N   UNK     1       0.075  16.375 -32.631  1.00  0.00    -0.231 NA
BRANCH   8  15
ATOM     15  N   UNK     1       0.369  19.386 -33.271  1.00  0.00    -0.341 N 
ATOM     16  H   UNK     1       0.744  19.199 -34.186  1.00  0.00    +0.144 HD
ATOM     17  H   UNK     1       0.807  20.028 -32.625  1.00  0.00    +0.144 HD
ENDBRANCH   8  15
ENDBRANCH   1  12
BRANCH   3  18
ATOM     18  O   UNK     1      -5.303  12.948 -31.244  1.00  0.00    -0.386 OA
ATOM     19  H   UNK     1      -4.936  13.545 -30.556  1.00  0.00    +0.210 HD
ENDBRANCH   3  18
BRANCH   2  20
ATOM     20  O   UNK     1      -4.844  14.846 -33.227  1.00  0.00    -0.385 OA
ATOM     21  H   UNK     1      -5.411  14.299 -33.809  1.00  0.00    +0.210 HD
ENDBRANCH   2  20
BRANCH   4  22
ATOM     22  C   UNK     1      -2.053  11.342 -32.175  1.00  0.00    +0.103 C 
BRANCH  22  23
ATOM     23  S   UNK     1      -2.087   9.587 -31.667  1.00  0.00    -0.158 S 
BRANCH  23  24
ATOM     24  C   UNK     1      -2.992   8.835 -33.065  1.00  0.00    +0.071 C 
BRANCH  24  25
ATOM     25  C   UNK     1      -4.420   9.313 -33.346  1.00  0.00    +0.040 C 
BRANCH  25  26
ATOM     26  C   UNK     1      -5.518   8.718 -32.449  1.00  0.00    +0.161 C 
BRANCH  26  27
ATOM     27  N   UNK     1      -6.680   8.262 -33.252  1.00  0.00    -0.318 NA
ATOM     28  H   UNK     1      -6.359   8.150 -34.220  1.00  0.00    +0.119 HD
ATOM     29  H   UNK     1      -7.358   9.030 -33.274  1.00  0.00    +0.119 HD
ENDBRANCH  26  27
BRANCH  26  30
ATOM     30  C   UNK     1      -6.006   9.723 -31.388  1.00  0.00    +0.322 C 
ATOM     31  O   UNK     1      -5.473   9.953 -30.312  1.00  0.00    -0.249 OA
BRANCH  30  32
ATOM     32  O   UNK     1      -7.071  10.451 -31.775  1.00  0.00    -0.480 OA
ATOM     33  H   UNK     1      -6.751  11.377 -31.721  1.00  0.00    +0.295 HD
ENDBRANCH  30  32
ENDBRANCH  26  30
ENDBRANCH  25  26
ENDBRANCH  24  25
ENDBRANCH  23  24
ENDBRANCH  22  23
ENDBRANCH   4  22
TORSDOF 12
ENDMDL
MODEL 5
REMARK VINA RESULT:    -6.604      4.223      9.655
REMARK INTER + INTRA:         -10.918
REMARK INTER:                 -10.088
REMARK INTRA:                  -0.830
REMARK UNBOUND:                -0.647
REMARK  Name = 
REMARK  12 active torsions:
REMARK  status: ('A' for Active; 'I' for Inactive)
REMARK    1  A    between atoms: C_3  and  N_26
REMARK    2  A    between atoms: N_7  and  C_10
REMARK    3  A    between atoms: C_11  and  O_25
REMARK    4  A    between atoms: C_12  and  O_24
REMARK    5  A    between atoms: C_13  and  C_15
REMARK    6  A    between atoms: C_15  and  S_16
REMARK    7  A    between atoms: S_16  and  C_17
REMARK    8  A    between atoms: C_17  and  C_18
REMARK    9  A    between atoms: C_18  and  C_19
REMARK   10  A    between atoms: C_19  and  C_20
REMARK   11  A    between atoms: C_19  and  N_23
REMARK   12  A    between atoms: C_20  and  O_22
REMARK                            x       y       z     vdW  Elec       q    Type
REMARK                         _______ _______ _______ _____ _____    ______ ____
ROOT
ATOM      1  C   UNK     1      -3.056  12.134 -32.122  1.00  0.00    +0.253 C 
ATOM      2  C   UNK     1      -4.100  12.857 -32.975  1.00  0.00    +0.195 C 
ATOM      3  C   UNK     1      -3.228  13.877 -33.689  1.00  0.00    +0.177 C 
ATOM      4  C   UNK     1      -2.242  14.291 -32.595  1.00  0.00    +0.162 C 
ATOM      5  O   UNK     1      -2.116  13.153 -31.700  1.00  0.00    -0.347 OA
ENDROOT
BRANCH   1  12
ATOM      6  C   UNK     1      -5.136   8.349 -31.558  1.00  0.00    +0.225 A 
ATOM      7  N   UNK     1      -5.518   8.009 -30.308  1.00  0.00    -0.219 NA
ATOM      8  C   UNK     1      -5.243   8.864 -29.297  1.00  0.00    +0.147 A 
ATOM      9  C   UNK     1      -4.572  10.062 -29.596  1.00  0.00    +0.147 A 
ATOM     10  C   UNK     1      -4.242  10.276 -30.924  1.00  0.00    +0.167 A 
ATOM     11  N   UNK     1      -4.498   9.467 -31.968  1.00  0.00    -0.216 NA
ATOM     12  N   UNK     1      -3.610  11.491 -30.943  1.00  0.00    -0.286 N 
ATOM     13  C   UNK     1      -3.571  11.948 -29.652  1.00  0.00    +0.203 A 
ATOM     14  N   UNK     1      -4.155  11.117 -28.813  1.00  0.00    -0.231 NA
BRANCH   8  15
ATOM     15  N   UNK     1      -5.634   8.519 -28.024  1.00  0.00    -0.341 N 
ATOM     16  H   UNK     1      -6.612   8.347 -27.854  1.00  0.00    +0.144 HD
ATOM     17  H   UNK     1      -4.934   8.432 -27.301  1.00  0.00    +0.144 HD
ENDBRANCH   8  15
ENDBRANCH   1  12
BRANCH   3  18
ATOM     18  O   UNK     1      -2.482  13.259 -34.750  1.00  0.00    -0.386 OA
ATOM     19  H   UNK     1      -2.514  12.293 -34.575  1.00  0.00    +0.210 HD
ENDBRANCH   3  18
BRANCH   2  20
ATOM     20  O   UNK     1      -4.835  12.048 -33.886  1.00  0.00    -0.385 OA
ATOM     21  H   UNK     1      -5.782  12.111 -33.646  1.00  0.00    +0.210 HD
ENDBRANCH   2  20
BRANCH   4  22
ATOM     22  C   UNK     1      -2.665  15.506 -31.762  1.00  0.00    +0.103 C 
BRANCH  22  23
ATOM     23  S   UNK     1      -3.128  16.981 -32.738  1.00  0.00    -0.158 S 
BRANCH  23  24
ATOM     24  C   UNK     1      -1.514  17.825 -32.886  1.00  0.00    +0.071 C 
BRANCH  24  25
ATOM     25  C   UNK     1      -1.453  19.329 -32.602  1.00  0.00    +0.040 C 
BRANCH  25  26
ATOM     26  C   UNK     1      -2.805  20.028 -32.380  1.00  0.00    +0.161 C 
BRANCH  26  27
ATOM     27  N   UNK     1      -3.114  20.965 -33.489  1.00  0.00    -0.318 NA
ATOM     28  H   UNK     1      -2.808  20.519 -34.361  1.00  0.00    +0.119 HD
ATOM     29  H   UNK     1      -2.512  21.786 -33.374  1.00  0.00    +0.119 HD
ENDBRANCH  26  27
BRANCH  26  30
ATOM     30  C   UNK     1      -2.846  20.798 -31.047  1.00  0.00    +0.322 C 
ATOM     31  O   UNK     1      -2.972  22.007 -30.915  1.00  0.00    -0.249 OA
BRANCH  30  32
ATOM     32  O   UNK     1      -2.829  20.006 -29.959  1.00  0.00    -0.480 OA
ATOM     33  H   UNK     1      -3.187  20.580 -29.248  1.00  0.00    +0.295 HD
ENDBRANCH  30  32
ENDBRANCH  26  30
ENDBRANCH  25  26
ENDBRANCH  24  25
ENDBRANCH  23  24
ENDBRANCH  22  23
ENDBRANCH   4  22
TORSDOF 12
ENDMDL
MODEL 6
REMARK VINA RESULT:    -6.569      6.055     10.555
REMARK INTER + INTRA:         -10.864
REMARK INTER:                 -10.093
REMARK INTRA:                  -0.771
REMARK UNBOUND:                -0.647
REMARK  Name = 
REMARK  12 active torsions:
REMARK  status: ('A' for Active; 'I' for Inactive)
REMARK    1  A    between atoms: C_3  and  N_26
REMARK    2  A    between atoms: N_7  and  C_10
REMARK    3  A    between atoms: C_11  and  O_25
REMARK    4  A    between atoms: C_12  and  O_24
REMARK    5  A    between atoms: C_13  and  C_15
REMARK    6  A    between atoms: C_15  and  S_16
REMARK    7  A    between atoms: S_16  and  C_17
REMARK    8  A    between atoms: C_17  and  C_18
REMARK    9  A    between atoms: C_18  and  C_19
REMARK   10  A    between atoms: C_19  and  C_20
REMARK   11  A    between atoms: C_19  and  N_23
REMARK   12  A    between atoms: C_20  and  O_22
REMARK                            x       y       z     vdW  Elec       q    Type
REMARK                         _______ _______ _______ _____ _____    ______ ____
ROOT
ATOM      1  C   UNK     1      -4.830   9.319 -30.950  1.00  0.00    +0.253 C 
ATOM      2  C   UNK     1      -5.584  10.453 -31.650  1.00  0.00    +0.195 C 
ATOM      3  C   UNK     1      -4.975  10.383 -33.041  1.00  0.00    +0.177 C 
ATOM      4  C   UNK     1      -3.506  10.076 -32.743  1.00  0.00    +0.162 C 
ATOM      5  O   UNK     1      -3.483   9.353 -31.482  1.00  0.00    -0.347 OA
ENDROOT
BRANCH   1  12
ATOM      6  C   UNK     1      -6.565   7.000 -27.696  1.00  0.00    +0.225 A 
ATOM      7  N   UNK     1      -6.301   7.382 -26.428  1.00  0.00    -0.219 NA
ATOM      8  C   UNK     1      -5.520   8.468 -26.232  1.00  0.00    +0.147 A 
ATOM      9  C   UNK     1      -5.019   9.144 -27.357  1.00  0.00    +0.147 A 
ATOM     10  C   UNK     1      -5.373   8.638 -28.597  1.00  0.00    +0.167 A 
ATOM     11  N   UNK     1      -6.151   7.570 -28.849  1.00  0.00    -0.216 NA
ATOM     12  N   UNK     1      -4.768   9.465 -29.506  1.00  0.00    -0.286 N 
ATOM     13  C   UNK     1      -4.075  10.411 -28.796  1.00  0.00    +0.203 A 
ATOM     14  N   UNK     1      -4.215  10.257 -27.496  1.00  0.00    -0.231 NA
BRANCH   8  15
ATOM     15  N   UNK     1      -5.253   8.858 -24.940  1.00  0.00    -0.341 N 
ATOM     16  H   UNK     1      -5.472   8.219 -24.193  1.00  0.00    +0.144 HD
ATOM     17  H   UNK     1      -4.833   9.762 -24.776  1.00  0.00    +0.144 HD
ENDBRANCH   8  15
ENDBRANCH   1  12
BRANCH   3  18
ATOM     18  O   UNK     1      -5.520   9.281 -33.783  1.00  0.00    -0.386 OA
ATOM     19  H   UNK     1      -4.814   8.998 -34.404  1.00  0.00    +0.210 HD
ENDBRANCH   3  18
BRANCH   2  20
ATOM     20  O   UNK     1      -7.002  10.340 -31.678  1.00  0.00    -0.385 OA
ATOM     21  H   UNK     1      -7.376  11.164 -31.304  1.00  0.00    +0.210 HD
ENDBRANCH   2  20
BRANCH   4  22
ATOM     22  C   UNK     1      -2.598  11.302 -32.605  1.00  0.00    +0.103 C 
BRANCH  22  23
ATOM     23  S   UNK     1      -3.168  12.784 -33.511  1.00  0.00    -0.158 S 
BRANCH  23  24
ATOM     24  C   UNK     1      -3.686  13.862 -32.130  1.00  0.00    +0.071 C 
BRANCH  24  25
ATOM     25  C   UNK     1      -2.758  15.008 -31.716  1.00  0.00    +0.040 C 
BRANCH  25  26
ATOM     26  C   UNK     1      -2.904  16.315 -32.514  1.00  0.00    +0.161 C 
BRANCH  26  27
ATOM     27  N   UNK     1      -4.076  16.261 -33.424  1.00  0.00    -0.318 NA
ATOM     28  H   UNK     1      -3.720  16.090 -34.371  1.00  0.00    +0.119 HD
ATOM     29  H   UNK     1      -4.488  17.198 -33.449  1.00  0.00    +0.119 HD
ENDBRANCH  26  27
BRANCH  26  30
ATOM     30  C   UNK     1      -1.644  16.634 -33.338  1.00  0.00    +0.322 C 
ATOM     31  O   UNK     1      -0.505  16.743 -32.905  1.00  0.00    -0.249 OA
BRANCH  30  32
ATOM     32  O   UNK     1      -1.862  16.701 -34.665  1.00  0.00    -0.480 OA
ATOM     33  H   UNK     1      -2.617  17.322 -34.745  1.00  0.00    +0.295 HD
ENDBRANCH  30  32
ENDBRANCH  26  30
ENDBRANCH  25  26
ENDBRANCH  24  25
ENDBRANCH  23  24
ENDBRANCH  22  23
ENDBRANCH   4  22
TORSDOF 12
ENDMDL
MODEL 7
REMARK VINA RESULT:    -6.486      3.040      4.840
REMARK INTER + INTRA:         -10.735
REMARK INTER:                  -9.989
REMARK INTRA:                  -0.746
REMARK UNBOUND:                -0.647
REMARK  Name = 
REMARK  12 active torsions:
REMARK  status: ('A' for Active; 'I' for Inactive)
REMARK    1  A    between atoms: C_3  and  N_26
REMARK    2  A    between atoms: N_7  and  C_10
REMARK    3  A    between atoms: C_11  and  O_25
REMARK    4  A    between atoms: C_12  and  O_24
REMARK    5  A    between atoms: C_13  and  C_15
REMARK    6  A    between atoms: C_15  and  S_16
REMARK    7  A    between atoms: S_16  and  C_17
REMARK    8  A    between atoms: C_17  and  C_18
REMARK    9  A    between atoms: C_18  and  C_19
REMARK   10  A    between atoms: C_19  and  C_20
REMARK   11  A    between atoms: C_19  and  N_23
REMARK   12  A    between atoms: C_20  and  O_22
REMARK                            x       y       z     vdW  Elec       q    Type
REMARK                         _______ _______ _______ _____ _____    ______ ____
ROOT
ATOM      1  C   UNK     1      -2.645  18.799 -33.016  1.00  0.00    +0.253 C 
ATOM      2  C   UNK     1      -1.260  18.153 -32.939  1.00  0.00    +0.195 C 
ATOM      3  C   UNK     1      -1.569  16.755 -33.453  1.00  0.00    +0.177 C 
ATOM      4  C   UNK     1      -2.938  16.471 -32.831  1.00  0.00    +0.162 C 
ATOM      5  O   UNK     1      -3.587  17.760 -32.654  1.00  0.00    -0.347 OA
ENDROOT
BRANCH   1  12
ATOM      6  C   UNK     1      -3.943  22.908 -33.657  1.00  0.00    +0.225 A 
ATOM      7  N   UNK     1      -4.023  23.727 -32.587  1.00  0.00    -0.219 NA
ATOM      8  C   UNK     1      -3.688  23.234 -31.373  1.00  0.00    +0.147 A 
ATOM      9  C   UNK     1      -3.276  21.894 -31.285  1.00  0.00    +0.147 A 
ATOM     10  C   UNK     1      -3.244  21.173 -32.466  1.00  0.00    +0.167 A 
ATOM     11  N   UNK     1      -3.556  21.614 -33.698  1.00  0.00    -0.216 NA
ATOM     12  N   UNK     1      -2.815  19.922 -32.110  1.00  0.00    -0.286 N 
ATOM     13  C   UNK     1      -2.623  19.930 -30.753  1.00  0.00    +0.203 A 
ATOM     14  N   UNK     1      -2.878  21.109 -30.223  1.00  0.00    -0.231 NA
BRANCH   8  15
ATOM     15  N   UNK     1      -3.767  24.070 -30.283  1.00  0.00    -0.341 N 
ATOM     16  H   UNK     1      -4.488  23.899 -29.601  1.00  0.00    +0.144 HD
ATOM     17  H   UNK     1      -3.096  24.819 -30.187  1.00  0.00    +0.144 HD
ENDBRANCH   8  15
ENDBRANCH   1  12
BRANCH   3  18
ATOM     18  O   UNK     1      -1.720  16.757 -34.881  1.00  0.00    -0.386 OA
ATOM     19  H   UNK     1      -1.033  17.370 -35.224  1.00  0.00    +0.210 HD
ENDBRANCH   3  18
BRANCH   2  20
ATOM     20  O   UNK     1      -0.230  18.785 -33.690  1.00  0.00    -0.385 OA
ATOM     21  H   UNK     1       0.049  19.586 -33.201  1.00  0.00    +0.210 HD
ENDBRANCH   2  20
BRANCH   4  22
ATOM     22  C   UNK     1      -2.902  15.766 -31.471  1.00  0.00    +0.103 C 
BRANCH  22  23
ATOM     23  S   UNK     1      -1.969  14.195 -31.446  1.00  0.00    -0.158 S 
BRANCH  23  24
ATOM     24  C   UNK     1      -0.363  14.752 -30.775  1.00  0.00    +0.071 C 
BRANCH  24  25
ATOM     25  C   UNK     1       0.903  14.459 -31.586  1.00  0.00    +0.040 C 
BRANCH  25  26
ATOM     26  C   UNK     1       2.152  15.269 -31.201  1.00  0.00    +0.161 C 
BRANCH  26  27
ATOM     27  N   UNK     1       3.061  15.439 -32.362  1.00  0.00    -0.318 NA
ATOM     28  H   UNK     1       3.984  15.090 -32.082  1.00  0.00    +0.119 HD
ATOM     29  H   UNK     1       3.182  16.446 -32.513  1.00  0.00    +0.119 HD
ENDBRANCH  26  27
BRANCH  26  30
ATOM     30  C   UNK     1       2.933  14.615 -30.046  1.00  0.00    +0.322 C 
ATOM     31  O   UNK     1       3.252  15.152 -28.994  1.00  0.00    -0.249 OA
BRANCH  30  32
ATOM     32  O   UNK     1       3.182  13.305 -30.228  1.00  0.00    -0.480 OA
ATOM     33  H   UNK     1       4.145  13.225 -30.059  1.00  0.00    +0.295 HD
ENDBRANCH  30  32
ENDBRANCH  26  30
ENDBRANCH  25  26
ENDBRANCH  24  25
ENDBRANCH  23  24
ENDBRANCH  22  23
ENDBRANCH   4  22
TORSDOF 12
ENDMDL
MODEL 8
REMARK VINA RESULT:    -6.451      3.156      4.655
REMARK INTER + INTRA:         -10.680
REMARK INTER:                  -9.454
REMARK INTRA:                  -1.225
REMARK UNBOUND:                -0.647
REMARK  Name = 
REMARK  12 active torsions:
REMARK  status: ('A' for Active; 'I' for Inactive)
REMARK    1  A    between atoms: C_3  and  N_26
REMARK    2  A    between atoms: N_7  and  C_10
REMARK    3  A    between atoms: C_11  and  O_25
REMARK    4  A    between atoms: C_12  and  O_24
REMARK    5  A    between atoms: C_13  and  C_15
REMARK    6  A    between atoms: C_15  and  S_16
REMARK    7  A    between atoms: S_16  and  C_17
REMARK    8  A    between atoms: C_17  and  C_18
REMARK    9  A    between atoms: C_18  and  C_19
REMARK   10  A    between atoms: C_19  and  C_20
REMARK   11  A    between atoms: C_19  and  N_23
REMARK   12  A    between atoms: C_20  and  O_22
REMARK                            x       y       z     vdW  Elec       q    Type
REMARK                         _______ _______ _______ _____ _____    ______ ____
ROOT
ATOM      1  C   UNK     1      -0.966  14.367 -31.757  1.00  0.00    +0.253 C 
ATOM      2  C   UNK     1      -1.116  13.845 -30.326  1.00  0.00    +0.195 C 
ATOM      3  C   UNK     1      -0.851  12.363 -30.535  1.00  0.00    +0.177 C 
ATOM      4  C   UNK     1      -1.544  12.089 -31.871  1.00  0.00    +0.162 C 
ATOM      5  O   UNK     1      -1.519  13.338 -32.613  1.00  0.00    -0.347 OA
ENDROOT
BRANCH   1  12
ATOM      6  C   UNK     1       0.413  18.374 -32.768  1.00  0.00    +0.225 A 
ATOM      7  N   UNK     1      -0.512  19.339 -32.959  1.00  0.00    -0.219 NA
ATOM      8  C   UNK     1      -1.818  19.015 -32.819  1.00  0.00    +0.147 A 
ATOM      9  C   UNK     1      -2.148  17.691 -32.483  1.00  0.00    +0.147 A 
ATOM     10  C   UNK     1      -1.093  16.809 -32.319  1.00  0.00    +0.167 A 
ATOM     11  N   UNK     1       0.220  17.078 -32.438  1.00  0.00    -0.216 NA
ATOM     12  N   UNK     1      -1.675  15.611 -32.001  1.00  0.00    -0.286 N 
ATOM     13  C   UNK     1      -3.032  15.807 -31.999  1.00  0.00    +0.203 A 
ATOM     14  N   UNK     1      -3.353  17.055 -32.273  1.00  0.00    -0.231 NA
BRANCH   8  15
ATOM     15  N   UNK     1      -2.760  19.999 -33.011  1.00  0.00    -0.341 N 
ATOM     16  H   UNK     1      -2.796  20.762 -32.355  1.00  0.00    +0.144 HD
ATOM     17  H   UNK     1      -3.378  19.940 -33.808  1.00  0.00    +0.144 HD
ENDBRANCH   8  15
ENDBRANCH   1  12
BRANCH   3  18
ATOM     18  O   UNK     1       0.554  12.113 -30.702  1.00  0.00    -0.386 OA
ATOM     19  H   UNK     1       0.842  11.638 -29.892  1.00  0.00    +0.210 HD
ENDBRANCH   3  18
BRANCH   2  20
ATOM     20  O   UNK     1      -0.246  14.415 -29.356  1.00  0.00    -0.385 OA
ATOM     21  H   UNK     1      -0.342  13.901 -28.527  1.00  0.00    +0.210 HD
ENDBRANCH   2  20
BRANCH   4  22
ATOM     22  C   UNK     1      -3.001  11.627 -31.766  1.00  0.00    +0.103 C 
BRANCH  22  23
ATOM     23  S   UNK     1      -3.316   9.935 -32.381  1.00  0.00    -0.158 S 
BRANCH  23  24
ATOM     24  C   UNK     1      -4.474  10.270 -33.754  1.00  0.00    +0.071 C 
BRANCH  24  25
ATOM     25  C   UNK     1      -4.795  11.729 -34.092  1.00  0.00    +0.040 C 
BRANCH  25  26
ATOM     26  C   UNK     1      -4.197  12.264 -35.404  1.00  0.00    +0.161 C 
BRANCH  26  27
ATOM     27  N   UNK     1      -2.991  13.091 -35.146  1.00  0.00    -0.318 NA
ATOM     28  H   UNK     1      -3.057  13.924 -35.742  1.00  0.00    +0.119 HD
ATOM     29  H   UNK     1      -2.181  12.568 -35.493  1.00  0.00    +0.119 HD
ENDBRANCH  26  27
BRANCH  26  30
ATOM     30  C   UNK     1      -5.213  13.097 -36.207  1.00  0.00    +0.322 C 
ATOM     31  O   UNK     1      -5.337  13.109 -37.423  1.00  0.00    -0.249 OA
BRANCH  30  32
ATOM     32  O   UNK     1      -6.077  13.789 -35.441  1.00  0.00    -0.480 OA
ATOM     33  H   UNK     1      -6.811  13.156 -35.288  1.00  0.00    +0.295 HD
ENDBRANCH  30  32
ENDBRANCH  26  30
ENDBRANCH  25  26
ENDBRANCH  24  25
ENDBRANCH  23  24
ENDBRANCH  22  23
ENDBRANCH   4  22
TORSDOF 12
ENDMDL
MODEL 9
REMARK VINA RESULT:    -6.333      6.734      9.672
REMARK INTER + INTRA:         -10.497
REMARK INTER:                  -9.702
REMARK INTRA:                  -0.795
REMARK UNBOUND:                -0.647
REMARK  Name = 
REMARK  12 active torsions:
REMARK  status: ('A' for Active; 'I' for Inactive)
REMARK    1  A    between atoms: C_3  and  N_26
REMARK    2  A    between atoms: N_7  and  C_10
REMARK    3  A    between atoms: C_11  and  O_25
REMARK    4  A    between atoms: C_12  and  O_24
REMARK    5  A    between atoms: C_13  and  C_15
REMARK    6  A    between atoms: C_15  and  S_16
REMARK    7  A    between atoms: S_16  and  C_17
REMARK    8  A    between atoms: C_17  and  C_18
REMARK    9  A    between atoms: C_18  and  C_19
REMARK   10  A    between atoms: C_19  and  C_20
REMARK   11  A    between atoms: C_19  and  N_23
REMARK   12  A    between atoms: C_20  and  O_22
REMARK                            x       y       z     vdW  Elec       q    Type
REMARK                         _______ _______ _______ _____ _____    ______ ____
ROOT
ATOM      1  C   UNK     1      -3.655  11.447 -29.087  1.00  0.00    +0.253 C 
ATOM      2  C   UNK     1      -2.249  11.106 -29.589  1.00  0.00    +0.195 C 
ATOM      3  C   UNK     1      -2.089  12.128 -30.702  1.00  0.00    +0.177 C 
ATOM      4  C   UNK     1      -3.487  12.162 -31.323  1.00  0.00    +0.162 C 
ATOM      5  O   UNK     1      -4.417  11.808 -30.264  1.00  0.00    -0.347 OA
ENDROOT
BRANCH   1  12
ATOM      6  C   UNK     1      -4.590  10.695 -24.900  1.00  0.00    +0.225 A 
ATOM      7  N   UNK     1      -5.252   9.560 -24.586  1.00  0.00    -0.219 NA
ATOM      8  C   UNK     1      -5.582   8.712 -25.586  1.00  0.00    +0.147 A 
ATOM      9  C   UNK     1      -5.224   9.053 -26.901  1.00  0.00    +0.147 A 
ATOM     10  C   UNK     1      -4.548  10.250 -27.071  1.00  0.00    +0.167 A 
ATOM     11  N   UNK     1      -4.187  11.125 -26.115  1.00  0.00    -0.216 NA
ATOM     12  N   UNK     1      -4.319  10.342 -28.418  1.00  0.00    -0.286 N 
ATOM     13  C   UNK     1      -4.866   9.228 -29.000  1.00  0.00    +0.203 A 
ATOM     14  N   UNK     1      -5.409   8.420 -28.112  1.00  0.00    -0.231 NA
BRANCH   8  15
ATOM     15  N   UNK     1      -6.254   7.554 -25.266  1.00  0.00    -0.341 N 
ATOM     16  H   UNK     1      -7.098   7.336 -25.772  1.00  0.00    +0.144 HD
ATOM     17  H   UNK     1      -5.880   6.950 -24.549  1.00  0.00    +0.144 HD
ENDBRANCH   8  15
ENDBRANCH   1  12
BRANCH   3  18
ATOM     18  O   UNK     1      -1.808  13.430 -30.165  1.00  0.00    -0.386 OA
ATOM     19  H   UNK     1      -2.521  13.614 -29.515  1.00  0.00    +0.210 HD
ENDBRANCH   3  18
BRANCH   2  20
ATOM     20  O   UNK     1      -1.203  11.190 -28.628  1.00  0.00    -0.385 OA
ATOM     21  H   UNK     1      -0.700  12.012 -28.803  1.00  0.00    +0.210 HD
ENDBRANCH   2  20
BRANCH   4  22
ATOM     22  C   UNK     1      -3.705  11.194 -32.491  1.00  0.00    +0.103 C 
BRANCH  22  23
ATOM     23  S   UNK     1      -2.427  11.266 -33.796  1.00  0.00    -0.158 S 
BRANCH  23  24
ATOM     24  C   UNK     1      -3.457  11.160 -35.301  1.00  0.00    +0.071 C 
BRANCH  24  25
ATOM     25  C   UNK     1      -4.862  11.767 -35.262  1.00  0.00    +0.040 C 
BRANCH  25  26
ATOM     26  C   UNK     1      -4.960  13.263 -35.606  1.00  0.00    +0.161 C 
BRANCH  26  27
ATOM     27  N   UNK     1      -5.037  14.093 -34.378  1.00  0.00    -0.318 NA
ATOM     28  H   UNK     1      -5.978  13.977 -33.987  1.00  0.00    +0.119 HD
ATOM     29  H   UNK     1      -4.977  15.074 -34.666  1.00  0.00    +0.119 HD
ENDBRANCH  26  27
BRANCH  26  30
ATOM     30  C   UNK     1      -6.177  13.574 -36.497  1.00  0.00    +0.322 C 
ATOM     31  O   UNK     1      -6.297  13.294 -37.681  1.00  0.00    -0.249 OA
BRANCH  30  32
ATOM     32  O   UNK     1      -7.212  14.126 -35.834  1.00  0.00    -0.480 OA
ATOM     33  H   UNK     1      -7.283  13.582 -35.021  1.00  0.00    +0.295 HD
ENDBRANCH  30  32
ENDBRANCH  26  30
ENDBRANCH  25  26
ENDBRANCH  24  25
ENDBRANCH  23  24
ENDBRANCH  22  23
ENDBRANCH   4  22
TORSDOF 12
ENDMDL
