MODEL 1
REMARK VINA RESULT:    -7.566      0.000      0.000
REMARK INTER + INTRA:         -12.117
REMARK INTER:                 -11.547
REMARK INTRA:                  -0.570
REMARK UNBOUND:                -0.570
REMARK  Name = 
REMARK  12 active torsions:
REMARK  status: ('A' for Active; 'I' for Inactive)
REMARK    1  A    between atoms: C_1  and  S_2
REMARK    2  A    between atoms: S_2  and  C_3
REMARK    3  A    between atoms: S_2  and  C_10
REMARK    4  A    between atoms: C_3  and  C_4
REMARK    5  A    between atoms: C_4  and  CA_5
REMARK    6  A    between atoms: CA_5  and  C_6
REMARK    7  A    between atoms: CA_5  and  N_9
REMARK    8  A    between atoms: C_10  and  C_11
REMARK    9  A    between atoms: C_12  and  O_27
REMARK   10  A    between atoms: C_13  and  O_26
REMARK   11  A    between atoms: C_14  and  N_16
REMARK   12  A    between atoms: C_24  and  N_25
REMARK                            x       y       z     vdW  Elec       q    Type
REMARK                         _______ _______ _______ _____ _____    ______ ____
ROOT
ATOM      1  C   UNL     1      -2.992  16.571 -32.997  1.00  0.00    +0.161 C 
ATOM      2  C   UNL     1      -1.551  16.749 -33.476  1.00  0.00    +0.177 C 
ATOM      3  C   UNL     1      -1.177  18.102 -32.903  1.00  0.00    +0.195 C 
ATOM      4  C   UNL     1      -2.498  18.865 -33.056  1.00  0.00    +0.253 C 
ATOM      5  O   UNL     1      -3.562  17.905 -32.944  1.00  0.00    -0.347 OA
ENDROOT
BRANCH   4   6
ATOM      6  N   UNL     1      -2.672  19.905 -32.058  1.00  0.00    -0.286 N 
ATOM      7  C   UNL     1      -2.446  19.820 -30.710  1.00  0.00    +0.203 A 
ATOM      8  N   UNL     1      -2.743  20.944 -30.089  1.00  0.00    -0.231 NA
ATOM      9  C   UNL     1      -3.176  21.795 -31.083  1.00  0.00    +0.147 A 
ATOM     10  C   UNL     1      -3.137  21.168 -32.318  1.00  0.00    +0.167 A 
ATOM     11  N   UNL     1      -3.472  21.692 -33.512  1.00  0.00    -0.216 NA
ATOM     12  C   UNL     1      -3.893  22.969 -33.365  1.00  0.00    +0.225 A 
ATOM     13  N   UNL     1      -3.987  23.701 -32.236  1.00  0.00    -0.219 NA
ATOM     14  C   UNL     1      -3.625  23.126 -31.065  1.00  0.00    +0.147 A 
BRANCH  14  15
ATOM     15  N   UNL     1      -3.712  23.872 -29.913  1.00  0.00    -0.341 N 
ATOM     16  H   UNL     1      -3.149  23.602 -29.117  1.00  0.00    +0.144 HD
ATOM     17  H   UNL     1      -4.299  24.689 -29.910  1.00  0.00    +0.144 HD
ENDBRANCH  14  15
ENDBRANCH   4   6
BRANCH   3  18
ATOM     18  O   UNL     1      -0.084  18.666 -33.635  1.00  0.00    -0.385 OA
ATOM     19  H   UNL     1       0.729  18.439 -33.131  1.00  0.00    +0.210 HD
ENDBRANCH   3  18
BRANCH   2  20
ATOM     20  O   UNL     1      -1.504  16.825 -34.910  1.00  0.00    -0.386 OA
ATOM     21  H   UNL     1      -1.600  15.899 -35.214  1.00  0.00    +0.210 HD
ENDBRANCH   2  20
BRANCH   1  22
ATOM     22  C   UNL     1      -3.039  15.942 -31.596  1.00  0.00    +0.093 C 
BRANCH  22  24
ATOM     23  C   UNL     1      -3.978  13.469 -30.895  1.00  0.00    +0.073 C 
ATOM     24  S   UNL     1      -2.494  14.207 -31.613  1.00  0.00    -0.209 S 
BRANCH  24  25
ATOM     25  C   UNL     1      -2.838  13.777 -33.361  1.00  0.00    +0.061 C 
BRANCH  25  26
ATOM     26  C   UNL     1      -4.229  13.235 -33.683  1.00  0.00    +0.040 C 
BRANCH  26  27
ATOM     27  CA  UNL     1      -4.602  13.428 -35.156  1.00  0.00    +0.166 C 
BRANCH  27  28
ATOM     28  C   UNL     1      -4.670  12.016 -35.852  1.00  0.00    +0.372 C 
ATOM     29  O   UNL     1      -4.707  11.036 -35.047  1.00  0.00    -0.245 OA
ATOM     30  OXT UNL     1      -4.703  12.039 -37.112  1.00  0.00    -0.245 OA
ENDBRANCH  27  28
BRANCH  27  31
ATOM     31  N   UNL     1      -5.967  14.054 -35.229  1.00  0.00    -0.318 NA
ATOM     32  H1  UNL     1      -5.805  15.058 -35.131  1.00  0.00    +0.119 HD
ATOM     33  H2  UNL     1      -6.186  13.993 -36.238  1.00  0.00    +0.119 HD
ENDBRANCH  27  31
ENDBRANCH  26  27
ENDBRANCH  25  26
ENDBRANCH  24  25
ENDBRANCH  22  24
ENDBRANCH   1  22
TORSDOF 11
ENDMDL
MODEL 2
REMARK VINA RESULT:    -7.009      3.718      5.463
REMARK INTER + INTRA:         -11.267
REMARK INTER:                  -9.890
REMARK INTRA:                  -1.377
REMARK UNBOUND:                -0.570
REMARK  Name = 
REMARK  12 active torsions:
REMARK  status: ('A' for Active; 'I' for Inactive)
REMARK    1  A    between atoms: C_1  and  S_2
REMARK    2  A    between atoms: S_2  and  C_3
REMARK    3  A    between atoms: S_2  and  C_10
REMARK    4  A    between atoms: C_3  and  C_4
REMARK    5  A    between atoms: C_4  and  CA_5
REMARK    6  A    between atoms: CA_5  and  C_6
REMARK    7  A    between atoms: CA_5  and  N_9
REMARK    8  A    between atoms: C_10  and  C_11
REMARK    9  A    between atoms: C_12  and  O_27
REMARK   10  A    between atoms: C_13  and  O_26
REMARK   11  A    between atoms: C_14  and  N_16
REMARK   12  A    between atoms: C_24  and  N_25
REMARK                            x       y       z     vdW  Elec       q    Type
REMARK                         _______ _______ _______ _____ _____    ______ ____
ROOT
ATOM      1  C   UNL     1      -2.913  12.142 -31.334  1.00  0.00    +0.161 C 
ATOM      2  C   UNL     1      -4.146  12.521 -32.154  1.00  0.00    +0.177 C 
ATOM      3  C   UNL     1      -3.750  13.858 -32.749  1.00  0.00    +0.195 C 
ATOM      4  C   UNL     1      -2.957  14.475 -31.592  1.00  0.00    +0.253 C 
ATOM      5  O   UNL     1      -2.345  13.394 -30.868  1.00  0.00    -0.347 OA
ENDROOT
BRANCH   4   6
ATOM      6  N   UNL     1      -1.935  15.406 -32.035  1.00  0.00    -0.286 N 
ATOM      7  C   UNL     1      -0.611  15.147 -32.273  1.00  0.00    +0.203 A 
ATOM      8  N   UNL     1       0.046  16.233 -32.629  1.00  0.00    -0.231 NA
ATOM      9  C   UNL     1      -0.898  17.237 -32.627  1.00  0.00    +0.147 A 
ATOM     10  C   UNL     1      -2.140  16.742 -32.262  1.00  0.00    +0.167 A 
ATOM     11  N   UNL     1      -3.296  17.426 -32.163  1.00  0.00    -0.216 NA
ATOM     12  C   UNL     1      -3.099  18.730 -32.461  1.00  0.00    +0.225 A 
ATOM     13  N   UNL     1      -1.956  19.349 -32.825  1.00  0.00    -0.219 NA
ATOM     14  C   UNL     1      -0.827  18.609 -32.919  1.00  0.00    +0.147 A 
BRANCH  14  15
ATOM     15  N   UNL     1       0.338  19.235 -33.298  1.00  0.00    -0.341 N 
ATOM     16  H   UNL     1       1.200  18.976 -32.836  1.00  0.00    +0.144 HD
ATOM     17  H   UNL     1       0.306  19.899 -34.053  1.00  0.00    +0.144 HD
ENDBRANCH  14  15
ENDBRANCH   4   6
BRANCH   3  18
ATOM     18  O   UNL     1      -4.915  14.598 -33.126  1.00  0.00    -0.385 OA
ATOM     19  H   UNL     1      -4.745  15.529 -32.860  1.00  0.00    +0.210 HD
ENDBRANCH   3  18
BRANCH   2  20
ATOM     20  O   UNL     1      -5.281  12.714 -31.295  1.00  0.00    -0.386 OA
ATOM     21  H   UNL     1      -5.175  12.049 -30.585  1.00  0.00    +0.210 HD
ENDBRANCH   2  20
BRANCH   1  22
ATOM     22  C   UNL     1      -1.877  11.403 -32.195  1.00  0.00    +0.093 C 
BRANCH  22  24
ATOM     23  C   UNL     1      -0.612   8.984 -32.393  1.00  0.00    +0.073 C 
ATOM     24  S   UNL     1      -2.294   9.644 -32.395  1.00  0.00    -0.209 S 
BRANCH  24  25
ATOM     25  C   UNL     1      -2.719   9.213 -30.665  1.00  0.00    +0.061 C 
BRANCH  25  26
ATOM     26  C   UNL     1      -4.041   8.483 -30.435  1.00  0.00    +0.040 C 
BRANCH  26  27
ATOM     27  CA  UNL     1      -5.221   9.448 -30.289  1.00  0.00    +0.166 C 
BRANCH  27  28
ATOM     28  C   UNL     1      -6.120   9.351 -31.579  1.00  0.00    +0.372 C 
ATOM     29  O   UNL     1      -5.857   8.361 -32.328  1.00  0.00    -0.245 OA
ATOM     30  OXT UNL     1      -6.999  10.248 -31.691  1.00  0.00    -0.245 OA
ENDBRANCH  27  28
BRANCH  27  31
ATOM     31  N   UNL     1      -6.047   9.023 -29.107  1.00  0.00    -0.318 NA
ATOM     32  H1  UNL     1      -5.391   8.984 -28.324  1.00  0.00    +0.119 HD
ATOM     33  H2  UNL     1      -6.567   9.887 -28.877  1.00  0.00    +0.119 HD
ENDBRANCH  27  31
ENDBRANCH  26  27
ENDBRANCH  25  26
ENDBRANCH  24  25
ENDBRANCH  22  24
ENDBRANCH   1  22
TORSDOF 11
ENDMDL
MODEL 3
REMARK VINA RESULT:    -6.846      6.095      8.068
REMARK INTER + INTRA:         -11.018
REMARK INTER:                  -9.795
REMARK INTRA:                  -1.223
REMARK UNBOUND:                -0.570
REMARK  Name = 
REMARK  12 active torsions:
REMARK  status: ('A' for Active; 'I' for Inactive)
REMARK    1  A    between atoms: C_1  and  S_2
REMARK    2  A    between atoms: S_2  and  C_3
REMARK    3  A    between atoms: S_2  and  C_10
REMARK    4  A    between atoms: C_3  and  C_4
REMARK    5  A    between atoms: C_4  and  CA_5
REMARK    6  A    between atoms: CA_5  and  C_6
REMARK    7  A    between atoms: CA_5  and  N_9
REMARK    8  A    between atoms: C_10  and  C_11
REMARK    9  A    between atoms: C_12  and  O_27
REMARK   10  A    between atoms: C_13  and  O_26
REMARK   11  A    between atoms: C_14  and  N_16
REMARK   12  A    between atoms: C_24  and  N_25
REMARK                            x       y       z     vdW  Elec       q    Type
REMARK                         _______ _______ _______ _____ _____    ______ ____
ROOT
ATOM      1  C   UNL     1      -4.342   8.582 -33.595  1.00  0.00    +0.161 C 
ATOM      2  C   UNL     1      -5.808   8.753 -33.196  1.00  0.00    +0.177 C 
ATOM      3  C   UNL     1      -5.816  10.125 -32.550  1.00  0.00    +0.195 C 
ATOM      4  C   UNL     1      -4.464  10.123 -31.828  1.00  0.00    +0.253 C 
ATOM      5  O   UNL     1      -3.571   9.299 -32.596  1.00  0.00    -0.347 OA
ENDROOT
BRANCH   4   6
ATOM      6  N   UNL     1      -3.897  11.451 -31.677  1.00  0.00    -0.286 N 
ATOM      7  C   UNL     1      -4.406  12.636 -32.137  1.00  0.00    +0.203 A 
ATOM      8  N   UNL     1      -3.614  13.652 -31.858  1.00  0.00    -0.231 NA
ATOM      9  C   UNL     1      -2.548  13.097 -31.182  1.00  0.00    +0.147 A 
ATOM     10  C   UNL     1      -2.706  11.726 -31.057  1.00  0.00    +0.167 A 
ATOM     11  N   UNL     1      -1.876  10.859 -30.448  1.00  0.00    -0.216 NA
ATOM     12  C   UNL     1      -0.795  11.508 -29.957  1.00  0.00    +0.225 A 
ATOM     13  N   UNL     1      -0.508  12.825 -30.007  1.00  0.00    -0.219 NA
ATOM     14  C   UNL     1      -1.385  13.652 -30.622  1.00  0.00    +0.147 A 
BRANCH  14  15
ATOM     15  N   UNL     1      -1.100  14.997 -30.668  1.00  0.00    -0.341 N 
ATOM     16  H   UNL     1      -1.458  15.593 -29.934  1.00  0.00    +0.144 HD
ATOM     17  H   UNL     1      -0.507  15.339 -31.405  1.00  0.00    +0.144 HD
ENDBRANCH  14  15
ENDBRANCH   4   6
BRANCH   3  18
ATOM     18  O   UNL     1      -6.947  10.258 -31.682  1.00  0.00    -0.385 OA
ATOM     19  H   UNL     1      -6.594  10.221 -30.766  1.00  0.00    +0.210 HD
ENDBRANCH   3  18
BRANCH   2  20
ATOM     20  O   UNL     1      -6.178   7.776 -32.211  1.00  0.00    -0.386 OA
ATOM     21  H   UNL     1      -5.344   7.560 -31.745  1.00  0.00    +0.210 HD
ENDBRANCH   2  20
BRANCH   1  22
ATOM     22  C   UNL     1      -4.068   9.189 -34.980  1.00  0.00    +0.093 C 
BRANCH  22  24
ATOM     23  C   UNL     1      -1.915   9.661 -36.602  1.00  0.00    +0.073 C 
ATOM     24  S   UNL     1      -2.547  10.186 -34.994  1.00  0.00    -0.209 S 
BRANCH  24  25
ATOM     25  C   UNL     1      -3.226  11.804 -35.522  1.00  0.00    +0.061 C 
BRANCH  25  26
ATOM     26  C   UNL     1      -4.727  11.873 -35.795  1.00  0.00    +0.040 C 
BRANCH  26  27
ATOM     27  CA  UNL     1      -5.161  13.243 -36.322  1.00  0.00    +0.166 C 
BRANCH  27  28
ATOM     28  C   UNL     1      -6.316  13.041 -37.374  1.00  0.00    +0.372 C 
ATOM     29  O   UNL     1      -6.185  12.014 -38.106  1.00  0.00    -0.245 OA
ATOM     30  OXT UNL     1      -7.233  13.906 -37.339  1.00  0.00    -0.245 OA
ENDBRANCH  27  28
BRANCH  27  31
ATOM     31  N   UNL     1      -5.704  14.049 -35.176  1.00  0.00    -0.318 NA
ATOM     32  H1  UNL     1      -4.892  14.527 -34.778  1.00  0.00    +0.119 HD
ATOM     33  H2  UNL     1      -6.170  14.837 -35.659  1.00  0.00    +0.119 HD
ENDBRANCH  27  31
ENDBRANCH  26  27
ENDBRANCH  25  26
ENDBRANCH  24  25
ENDBRANCH  22  24
ENDBRANCH   1  22
TORSDOF 11
ENDMDL
MODEL 4
REMARK VINA RESULT:    -6.635      6.794      9.703
REMARK INTER + INTRA:         -10.695
REMARK INTER:                 -10.438
REMARK INTRA:                  -0.257
REMARK UNBOUND:                -0.570
REMARK  Name = 
REMARK  12 active torsions:
REMARK  status: ('A' for Active; 'I' for Inactive)
REMARK    1  A    between atoms: C_1  and  S_2
REMARK    2  A    between atoms: S_2  and  C_3
REMARK    3  A    between atoms: S_2  and  C_10
REMARK    4  A    between atoms: C_3  and  C_4
REMARK    5  A    between atoms: C_4  and  CA_5
REMARK    6  A    between atoms: CA_5  and  C_6
REMARK    7  A    between atoms: CA_5  and  N_9
REMARK    8  A    between atoms: C_10  and  C_11
REMARK    9  A    between atoms: C_12  and  O_27
REMARK   10  A    between atoms: C_13  and  O_26
REMARK   11  A    between atoms: C_14  and  N_16
REMARK   12  A    between atoms: C_24  and  N_25
REMARK                            x       y       z     vdW  Elec       q    Type
REMARK                         _______ _______ _______ _____ _____    ______ ____
ROOT
ATOM      1  C   UNL     1      -4.305   8.864 -32.939  1.00  0.00    +0.161 C 
ATOM      2  C   UNL     1      -5.691   9.482 -33.127  1.00  0.00    +0.177 C 
ATOM      3  C   UNL     1      -5.953  10.121 -31.777  1.00  0.00    +0.195 C 
ATOM      4  C   UNL     1      -5.316   9.095 -30.833  1.00  0.00    +0.253 C 
ATOM      5  O   UNL     1      -4.226   8.483 -31.541  1.00  0.00    -0.347 OA
ENDROOT
BRANCH   4   6
ATOM      6  N   UNL     1      -4.829   9.685 -29.599  1.00  0.00    -0.286 N 
ATOM      7  C   UNL     1      -4.069  10.814 -29.453  1.00  0.00    +0.203 A 
ATOM      8  N   UNL     1      -3.770  11.046 -28.190  1.00  0.00    -0.231 NA
ATOM      9  C   UNL     1      -4.368  10.021 -27.489  1.00  0.00    +0.147 A 
ATOM     10  C   UNL     1      -5.036   9.163 -28.348  1.00  0.00    +0.167 A 
ATOM     11  N   UNL     1      -5.742   8.064 -28.022  1.00  0.00    -0.216 NA
ATOM     12  C   UNL     1      -5.714   7.866 -26.684  1.00  0.00    +0.225 A 
ATOM     13  N   UNL     1      -5.108   8.609 -25.735  1.00  0.00    -0.219 NA
ATOM     14  C   UNL     1      -4.421   9.710 -26.120  1.00  0.00    +0.147 A 
BRANCH  14  15
ATOM     15  N   UNL     1      -3.808  10.474 -25.154  1.00  0.00    -0.341 N 
ATOM     16  H   UNL     1      -4.383  10.910 -24.445  1.00  0.00    +0.144 HD
ATOM     17  H   UNL     1      -2.805  10.541 -25.157  1.00  0.00    +0.144 HD
ENDBRANCH  14  15
ENDBRANCH   4   6
BRANCH   3  18
ATOM     18  O   UNL     1      -7.359  10.308 -31.582  1.00  0.00    -0.385 OA
ATOM     19  H   UNL     1      -7.527  10.143 -30.628  1.00  0.00    +0.210 HD
ENDBRANCH   3  18
BRANCH   2  20
ATOM     20  O   UNL     1      -6.671   8.457 -33.352  1.00  0.00    -0.386 OA
ATOM     21  H   UNL     1      -6.395   8.023 -34.186  1.00  0.00    +0.210 HD
ENDBRANCH   2  20
BRANCH   1  22
ATOM     22  C   UNL     1      -3.196   9.880 -33.252  1.00  0.00    +0.093 C 
BRANCH  22  24
ATOM     23  C   UNL     1      -2.377  12.374 -32.476  1.00  0.00    +0.073 C 
ATOM     24  S   UNL     1      -3.818  11.589 -33.233  1.00  0.00    -0.209 S 
BRANCH  24  25
ATOM     25  C   UNL     1      -3.472  12.079 -34.965  1.00  0.00    +0.061 C 
BRANCH  25  26
ATOM     26  C   UNL     1      -4.617  11.945 -35.967  1.00  0.00    +0.040 C 
BRANCH  26  27
ATOM     27  CA  UNL     1      -5.174  13.304 -36.399  1.00  0.00    +0.166 C 
BRANCH  27  28
ATOM     28  C   UNL     1      -6.361  13.070 -37.407  1.00  0.00    +0.372 C 
ATOM     29  O   UNL     1      -7.268  13.956 -37.362  1.00  0.00    -0.245 OA
ATOM     30  OXT UNL     1      -6.250  12.053 -38.144  1.00  0.00    -0.245 OA
ENDBRANCH  27  28
BRANCH  27  31
ATOM     31  N   UNL     1      -5.717  14.008 -35.187  1.00  0.00    -0.318 NA
ATOM     32  H1  UNL     1      -6.288  13.310 -34.707  1.00  0.00    +0.119 HD
ATOM     33  H2  UNL     1      -4.893  14.043 -34.562  1.00  0.00    +0.119 HD
ENDBRANCH  27  31
ENDBRANCH  26  27
ENDBRANCH  25  26
ENDBRANCH  24  25
ENDBRANCH  22  24
ENDBRANCH   1  22
TORSDOF 11
ENDMDL
MODEL 5
REMARK VINA RESULT:    -6.565      6.090      8.813
REMARK INTER + INTRA:         -10.590
REMARK INTER:                  -9.339
REMARK INTRA:                  -1.250
REMARK UNBOUND:                -0.570
REMARK  Name = 
REMARK  12 active torsions:
REMARK  status: ('A' for Active; 'I' for Inactive)
REMARK    1  A    between atoms: C_1  and  S_2
REMARK    2  A    between atoms: S_2  and  C_3
REMARK    3  A    between atoms: S_2  and  C_10
REMARK    4  A    between atoms: C_3  and  C_4
REMARK    5  A    between atoms: C_4  and  CA_5
REMARK    6  A    between atoms: CA_5  and  C_6
REMARK    7  A    between atoms: CA_5  and  N_9
REMARK    8  A    between atoms: C_10  and  C_11
REMARK    9  A    between atoms: C_12  and  O_27
REMARK   10  A    between atoms: C_13  and  O_26
REMARK   11  A    between atoms: C_14  and  N_16
REMARK   12  A    between atoms: C_24  and  N_25
REMARK                            x       y       z     vdW  Elec       q    Type
REMARK                         _______ _______ _______ _____ _____    ______ ____
ROOT
ATOM      1  C   UNL     1      -2.792  14.335 -32.827  1.00  0.00    +0.161 C 
ATOM      2  C   UNL     1      -4.032  14.939 -33.487  1.00  0.00    +0.177 C 
ATOM      3  C   UNL     1      -4.531  13.801 -34.356  1.00  0.00    +0.195 C 
ATOM      4  C   UNL     1      -3.208  13.189 -34.833  1.00  0.00    +0.253 C 
ATOM      5  O   UNL     1      -2.238  13.406 -33.795  1.00  0.00    -0.347 OA
ENDROOT
BRANCH   4   6
ATOM      6  N   UNL     1      -3.309  11.769 -35.118  1.00  0.00    -0.286 N 
ATOM      7  C   UNL     1      -4.442  11.001 -35.162  1.00  0.00    +0.203 A 
ATOM      8  N   UNL     1      -4.170   9.736 -35.414  1.00  0.00    -0.231 NA
ATOM      9  C   UNL     1      -2.799   9.687 -35.544  1.00  0.00    +0.147 A 
ATOM     10  C   UNL     1      -2.243  10.944 -35.366  1.00  0.00    +0.167 A 
ATOM     11  N   UNL     1      -0.941  11.280 -35.434  1.00  0.00    -0.216 NA
ATOM     12  C   UNL     1      -0.186  10.188 -35.693  1.00  0.00    +0.225 A 
ATOM     13  N   UNL     1      -0.584   8.913 -35.884  1.00  0.00    -0.219 NA
ATOM     14  C   UNL     1      -1.907   8.636 -35.816  1.00  0.00    +0.147 A 
BRANCH  14  15
ATOM     15  N   UNL     1      -2.318   7.339 -36.018  1.00  0.00    -0.341 N 
ATOM     16  H   UNL     1      -1.863   6.600 -35.499  1.00  0.00    +0.144 HD
ATOM     17  H   UNL     1      -3.087   7.168 -36.644  1.00  0.00    +0.144 HD
ENDBRANCH  14  15
ENDBRANCH   4   6
BRANCH   3  18
ATOM     18  O   UNL     1      -5.358  14.307 -35.408  1.00  0.00    -0.385 OA
ATOM     19  H   UNL     1      -5.877  15.045 -35.017  1.00  0.00    +0.210 HD
ENDBRANCH   3  18
BRANCH   2  20
ATOM     20  O   UNL     1      -3.665  16.041 -34.332  1.00  0.00    -0.386 OA
ATOM     21  H   UNL     1      -2.895  16.452 -33.888  1.00  0.00    +0.210 HD
ENDBRANCH   2  20
BRANCH   1  22
ATOM     22  C   UNL     1      -3.159  13.573 -31.544  1.00  0.00    +0.093 C 
BRANCH  22  24
ATOM     23  C   UNL     1      -2.166  12.049 -29.499  1.00  0.00    +0.073 C 
ATOM     24  S   UNL     1      -2.110  12.107 -31.303  1.00  0.00    -0.209 S 
BRANCH  24  25
ATOM     25  C   UNL     1      -3.332  10.779 -31.622  1.00  0.00    +0.061 C 
BRANCH  25  26
ATOM     26  C   UNL     1      -4.809  11.168 -31.578  1.00  0.00    +0.040 C 
BRANCH  26  27
ATOM     27  CA  UNL     1      -5.733   9.949 -31.633  1.00  0.00    +0.166 C 
BRANCH  27  28
ATOM     28  C   UNL     1      -5.516   9.086 -30.333  1.00  0.00    +0.372 C 
ATOM     29  O   UNL     1      -5.611   9.738 -29.249  1.00  0.00    -0.245 OA
ATOM     30  OXT UNL     1      -5.302   7.859 -30.531  1.00  0.00    -0.245 OA
ENDBRANCH  27  28
BRANCH  27  31
ATOM     31  N   UNL     1      -7.158  10.426 -31.647  1.00  0.00    -0.318 NA
ATOM     32  H1  UNL     1      -7.256  10.946 -32.522  1.00  0.00    +0.119 HD
ATOM     33  H2  UNL     1      -7.680   9.563 -31.880  1.00  0.00    +0.119 HD
ENDBRANCH  27  31
ENDBRANCH  26  27
ENDBRANCH  25  26
ENDBRANCH  24  25
ENDBRANCH  22  24
ENDBRANCH   1  22
TORSDOF 11
ENDMDL
MODEL 6
REMARK VINA RESULT:    -6.506      4.375      6.303
REMARK INTER + INTRA:         -10.499
REMARK INTER:                  -9.526
REMARK INTRA:                  -0.973
REMARK UNBOUND:                -0.570
REMARK  Name = 
REMARK  12 active torsions:
REMARK  status: ('A' for Active; 'I' for Inactive)
REMARK    1  A    between atoms: C_1  and  S_2
REMARK    2  A    between atoms: S_2  and  C_3
REMARK    3  A    between atoms: S_2  and  C_10
REMARK    4  A    between atoms: C_3  and  C_4
REMARK    5  A    between atoms: C_4  and  CA_5
REMARK    6  A    between atoms: CA_5  and  C_6
REMARK    7  A    between atoms: CA_5  and  N_9
REMARK    8  A    between atoms: C_10  and  C_11
REMARK    9  A    between atoms: C_12  and  O_27
REMARK   10  A    between atoms: C_13  and  O_26
REMARK   11  A    between atoms: C_14  and  N_16
REMARK   12  A    between atoms: C_24  and  N_25
REMARK                            x       y       z     vdW  Elec       q    Type
REMARK                         _______ _______ _______ _____ _____    ______ ____
ROOT
ATOM      1  C   UNL     1      -3.060  12.236 -31.004  1.00  0.00    +0.161 C 
ATOM      2  C   UNL     1      -4.223  12.499 -31.962  1.00  0.00    +0.177 C 
ATOM      3  C   UNL     1      -3.786  13.764 -32.674  1.00  0.00    +0.195 C 
ATOM      4  C   UNL     1      -3.095  14.523 -31.535  1.00  0.00    +0.253 C 
ATOM      5  O   UNL     1      -2.540  13.542 -30.643  1.00  0.00    -0.347 OA
ENDROOT
BRANCH   4   6
ATOM      6  N   UNL     1      -2.044  15.412 -31.999  1.00  0.00    -0.286 N 
ATOM      7  C   UNL     1      -0.742  15.095 -32.278  1.00  0.00    +0.203 A 
ATOM      8  N   UNL     1      -0.046  16.154 -32.643  1.00  0.00    -0.231 NA
ATOM      9  C   UNL     1      -0.942  17.200 -32.601  1.00  0.00    +0.147 A 
ATOM     10  C   UNL     1      -2.194  16.758 -32.204  1.00  0.00    +0.167 A 
ATOM     11  N   UNL     1      -3.314  17.492 -32.065  1.00  0.00    -0.216 NA
ATOM     12  C   UNL     1      -3.066  18.790 -32.354  1.00  0.00    +0.225 A 
ATOM     13  N   UNL     1      -1.907  19.360 -32.745  1.00  0.00    -0.219 NA
ATOM     14  C   UNL     1      -0.816  18.571 -32.881  1.00  0.00    +0.147 A 
BRANCH  14  15
ATOM     15  N   UNL     1       0.365  19.147 -33.288  1.00  0.00    -0.341 N 
ATOM     16  H   UNL     1       1.227  18.837 -32.861  1.00  0.00    +0.144 HD
ATOM     17  H   UNL     1       0.339  19.828 -34.028  1.00  0.00    +0.144 HD
ENDBRANCH  14  15
ENDBRANCH   4   6
BRANCH   3  18
ATOM     18  O   UNL     1      -4.920  14.439 -33.227  1.00  0.00    -0.385 OA
ATOM     19  H   UNL     1      -4.679  15.392 -33.267  1.00  0.00    +0.210 HD
ENDBRANCH   3  18
BRANCH   2  20
ATOM     20  O   UNL     1      -5.426  12.774 -31.227  1.00  0.00    -0.386 OA
ATOM     21  H   UNL     1      -5.921  13.410 -31.783  1.00  0.00    +0.210 HD
ENDBRANCH   2  20
BRANCH   1  22
ATOM     22  C   UNL     1      -1.953  11.418 -31.686  1.00  0.00    +0.093 C 
BRANCH  22  24
ATOM     23  C   UNL     1      -0.383  10.590 -29.602  1.00  0.00    +0.073 C 
ATOM     24  S   UNL     1      -1.574   9.894 -30.769  1.00  0.00    -0.209 S 
BRANCH  24  25
ATOM     25  C   UNL     1      -3.011   9.834 -29.633  1.00  0.00    +0.061 C 
BRANCH  25  26
ATOM     26  C   UNL     1      -2.770   9.267 -28.235  1.00  0.00    +0.040 C 
BRANCH  26  27
ATOM     27  CA  UNL     1      -3.905   9.608 -27.266  1.00  0.00    +0.166 C 
BRANCH  27  28
ATOM     28  C   UNL     1      -3.503  10.889 -26.442  1.00  0.00    +0.372 C 
ATOM     29  O   UNL     1      -4.476  11.475 -25.876  1.00  0.00    -0.245 OA
ATOM     30  OXT UNL     1      -2.271  11.155 -26.427  1.00  0.00    -0.245 OA
ENDBRANCH  27  28
BRANCH  27  31
ATOM     31  N   UNL     1      -5.138   9.929 -28.063  1.00  0.00    -0.318 NA
ATOM     32  H1  UNL     1      -5.724  10.485 -27.435  1.00  0.00    +0.119 HD
ATOM     33  H2  UNL     1      -4.801  10.664 -28.709  1.00  0.00    +0.119 HD
ENDBRANCH  27  31
ENDBRANCH  26  27
ENDBRANCH  25  26
ENDBRANCH  24  25
ENDBRANCH  22  24
ENDBRANCH   1  22
TORSDOF 11
ENDMDL
MODEL 7
REMARK VINA RESULT:    -6.498      7.098     11.790
REMARK INTER + INTRA:         -10.487
REMARK INTER:                  -9.511
REMARK INTRA:                  -0.976
REMARK UNBOUND:                -0.570
REMARK  Name = 
REMARK  12 active torsions:
REMARK  status: ('A' for Active; 'I' for Inactive)
REMARK    1  A    between atoms: C_1  and  S_2
REMARK    2  A    between atoms: S_2  and  C_3
REMARK    3  A    between atoms: S_2  and  C_10
REMARK    4  A    between atoms: C_3  and  C_4
REMARK    5  A    between atoms: C_4  and  CA_5
REMARK    6  A    between atoms: CA_5  and  C_6
REMARK    7  A    between atoms: CA_5  and  N_9
REMARK    8  A    between atoms: C_10  and  C_11
REMARK    9  A    between atoms: C_12  and  O_27
REMARK   10  A    between atoms: C_13  and  O_26
REMARK   11  A    between atoms: C_14  and  N_16
REMARK   12  A    between atoms: C_24  and  N_25
REMARK                            x       y       z     vdW  Elec       q    Type
REMARK                         _______ _______ _______ _____ _____    ______ ____
ROOT
ATOM      1  C   UNL     1      -2.062  25.120 -26.548  1.00  0.00    +0.161 C 
ATOM      2  C   UNL     1      -0.745  24.351 -26.660  1.00  0.00    +0.177 C 
ATOM      3  C   UNL     1      -0.827  23.756 -28.052  1.00  0.00    +0.195 C 
ATOM      4  C   UNL     1      -2.320  23.418 -28.144  1.00  0.00    +0.253 C 
ATOM      5  O   UNL     1      -3.025  24.377 -27.339  1.00  0.00    -0.347 OA
ENDROOT
BRANCH   4   6
ATOM      6  N   UNL     1      -2.828  23.452 -29.504  1.00  0.00    -0.286 N 
ATOM      7  C   UNL     1      -3.293  24.538 -30.197  1.00  0.00    +0.203 A 
ATOM      8  N   UNL     1      -3.715  24.208 -31.401  1.00  0.00    -0.231 NA
ATOM      9  C   UNL     1      -3.509  22.848 -31.490  1.00  0.00    +0.147 A 
ATOM     10  C   UNL     1      -2.954  22.358 -30.319  1.00  0.00    +0.167 A 
ATOM     11  N   UNL     1      -2.605  21.086 -30.048  1.00  0.00    -0.216 NA
ATOM     12  C   UNL     1      -2.888  20.286 -31.102  1.00  0.00    +0.225 A 
ATOM     13  N   UNL     1      -3.427  20.619 -32.293  1.00  0.00    -0.219 NA
ATOM     14  C   UNL     1      -3.747  21.915 -32.513  1.00  0.00    +0.147 A 
BRANCH  14  15
ATOM     15  N   UNL     1      -4.289  22.260 -33.730  1.00  0.00    -0.341 N 
ATOM     16  H   UNL     1      -4.840  21.573 -34.227  1.00  0.00    +0.144 HD
ATOM     17  H   UNL     1      -4.159  23.199 -34.068  1.00  0.00    +0.144 HD
ENDBRANCH  14  15
ENDBRANCH   4   6
BRANCH   3  18
ATOM     18  O   UNL     1       0.041  22.623 -28.159  1.00  0.00    -0.385 OA
ATOM     19  H   UNL     1       0.907  22.971 -28.470  1.00  0.00    +0.210 HD
ENDBRANCH   3  18
BRANCH   2  20
ATOM     20  O   UNL     1      -0.705  23.282 -25.701  1.00  0.00    -0.386 OA
ATOM     21  H   UNL     1      -1.543  22.793 -25.836  1.00  0.00    +0.210 HD
ENDBRANCH   2  20
BRANCH   1  22
ATOM     22  C   UNL     1      -1.926  26.541 -27.117  1.00  0.00    +0.093 C 
BRANCH  22  24
ATOM     23  C   UNL     1      -4.032  28.251 -26.750  1.00  0.00    +0.073 C 
ATOM     24  S   UNL     1      -2.486  27.802 -25.931  1.00  0.00    -0.209 S 
BRANCH  24  25
ATOM     25  C   UNL     1      -3.209  26.727 -24.634  1.00  0.00    +0.061 C 
BRANCH  25  26
ATOM     26  C   UNL     1      -4.732  26.622 -24.587  1.00  0.00    +0.040 C 
BRANCH  26  27
ATOM     27  CA  UNL     1      -5.319  27.235 -23.314  1.00  0.00    +0.166 C 
BRANCH  27  28
ATOM     28  C   UNL     1      -6.199  28.480 -23.707  1.00  0.00    +0.372 C 
ATOM     29  O   UNL     1      -5.566  29.579 -23.746  1.00  0.00    -0.245 OA
ATOM     30  OXT UNL     1      -7.409  28.227 -23.957  1.00  0.00    -0.245 OA
ENDBRANCH  27  28
BRANCH  27  31
ATOM     31  N   UNL     1      -6.211  26.218 -22.657  1.00  0.00    -0.318 NA
ATOM     32  H1  UNL     1      -6.044  26.325 -21.654  1.00  0.00    +0.119 HD
ATOM     33  H2  UNL     1      -7.146  26.653 -22.741  1.00  0.00    +0.119 HD
ENDBRANCH  27  31
ENDBRANCH  26  27
ENDBRANCH  25  26
ENDBRANCH  24  25
ENDBRANCH  22  24
ENDBRANCH   1  22
TORSDOF 11
ENDMDL
MODEL 8
REMARK VINA RESULT:    -6.468      6.512      9.247
REMARK INTER + INTRA:         -10.441
REMARK INTER:                  -9.639
REMARK INTRA:                  -0.802
REMARK UNBOUND:                -0.570
REMARK  Name = 
REMARK  12 active torsions:
REMARK  status: ('A' for Active; 'I' for Inactive)
REMARK    1  A    between atoms: C_1  and  S_2
REMARK    2  A    between atoms: S_2  and  C_3
REMARK    3  A    between atoms: S_2  and  C_10
REMARK    4  A    between atoms: C_3  and  C_4
REMARK    5  A    between atoms: C_4  and  CA_5
REMARK    6  A    between atoms: CA_5  and  C_6
REMARK    7  A    between atoms: CA_5  and  N_9
REMARK    8  A    between atoms: C_10  and  C_11
REMARK    9  A    between atoms: C_12  and  O_27
REMARK   10  A    between atoms: C_13  and  O_26
REMARK   11  A    between atoms: C_14  and  N_16
REMARK   12  A    between atoms: C_24  and  N_25
REMARK                            x       y       z     vdW  Elec       q    Type
REMARK                         _______ _______ _______ _____ _____    ______ ____
ROOT
ATOM      1  C   UNL     1      -3.141  12.435 -31.100  1.00  0.00    +0.161 C 
ATOM      2  C   UNL     1      -1.745  12.277 -30.496  1.00  0.00    +0.177 C 
ATOM      3  C   UNL     1      -1.974  11.255 -29.399  1.00  0.00    +0.195 C 
ATOM      4  C   UNL     1      -3.361  11.668 -28.892  1.00  0.00    +0.253 C 
ATOM      5  O   UNL     1      -4.073  12.230 -30.007  1.00  0.00    -0.347 OA
ENDROOT
BRANCH   4   6
ATOM      6  N   UNL     1      -4.117  10.560 -28.337  1.00  0.00    -0.286 N 
ATOM      7  C   UNL     1      -4.685   9.512 -29.011  1.00  0.00    +0.203 A 
ATOM      8  N   UNL     1      -5.333   8.700 -28.200  1.00  0.00    -0.231 NA
ATOM      9  C   UNL     1      -5.172   9.246 -26.945  1.00  0.00    +0.147 A 
ATOM     10  C   UNL     1      -4.414  10.405 -27.008  1.00  0.00    +0.167 A 
ATOM     11  N   UNL     1      -4.043  11.196 -25.984  1.00  0.00    -0.216 NA
ATOM     12  C   UNL     1      -4.535  10.719 -24.818  1.00  0.00    +0.225 A 
ATOM     13  N   UNL     1      -5.283   9.616 -24.607  1.00  0.00    -0.219 NA
ATOM     14  C   UNL     1      -5.617   8.852 -25.673  1.00  0.00    +0.147 A 
BRANCH  14  15
ATOM     15  N   UNL     1      -6.373   7.722 -25.460  1.00  0.00    -0.341 N 
ATOM     16  H   UNL     1      -5.899   6.852 -25.262  1.00  0.00    +0.144 HD
ATOM     17  H   UNL     1      -7.376   7.805 -25.465  1.00  0.00    +0.144 HD
ENDBRANCH  14  15
ENDBRANCH   4   6
BRANCH   3  18
ATOM     18  O   UNL     1      -0.938  11.343 -28.416  1.00  0.00    -0.385 OA
ATOM     19  H   UNL     1      -0.089  11.341 -28.913  1.00  0.00    +0.210 HD
ENDBRANCH   3  18
BRANCH   2  20
ATOM     20  O   UNL     1      -1.314  13.510 -29.898  1.00  0.00    -0.386 OA
ATOM     21  H   UNL     1      -2.036  13.757 -29.284  1.00  0.00    +0.210 HD
ENDBRANCH   2  20
BRANCH   1  22
ATOM     22  C   UNL     1      -3.398  11.384 -32.191  1.00  0.00    +0.093 C 
BRANCH  22  24
ATOM     23  C   UNL     1      -1.318  10.326 -33.622  1.00  0.00    +0.073 C 
ATOM     24  S   UNL     1      -2.448  11.732 -33.704  1.00  0.00    -0.209 S 
BRANCH  24  25
ATOM     25  C   UNL     1      -3.588  11.048 -34.965  1.00  0.00    +0.061 C 
BRANCH  25  26
ATOM     26  C   UNL     1      -4.953  11.719 -35.107  1.00  0.00    +0.040 C 
BRANCH  26  27
ATOM     27  CA  UNL     1      -4.883  13.013 -35.920  1.00  0.00    +0.166 C 
BRANCH  27  28
ATOM     28  C   UNL     1      -6.007  12.982 -37.024  1.00  0.00    +0.372 C 
ATOM     29  O   UNL     1      -6.961  13.793 -36.823  1.00  0.00    -0.245 OA
ATOM     30  OXT UNL     1      -5.805  12.179 -37.975  1.00  0.00    -0.245 OA
ENDBRANCH  27  28
BRANCH  27  31
ATOM     31  N   UNL     1      -5.156  14.173 -35.004  1.00  0.00    -0.318 NA
ATOM     32  H1  UNL     1      -5.399  14.950 -35.622  1.00  0.00    +0.119 HD
ATOM     33  H2  UNL     1      -6.088  13.938 -34.619  1.00  0.00    +0.119 HD
ENDBRANCH  27  31
ENDBRANCH  26  27
ENDBRANCH  25  26
ENDBRANCH  24  25
ENDBRANCH  22  24
ENDBRANCH   1  22
TORSDOF 11
ENDMDL
MODEL 9
REMARK VINA RESULT:    -6.468      5.439      8.198
REMARK INTER + INTRA:         -10.441
REMARK INTER:                  -9.178
REMARK INTRA:                  -1.263
REMARK UNBOUND:                -0.570
REMARK  Name = 
REMARK  12 active torsions:
REMARK  status: ('A' for Active; 'I' for Inactive)
REMARK    1  A    between atoms: C_1  and  S_2
REMARK    2  A    between atoms: S_2  and  C_3
REMARK    3  A    between atoms: S_2  and  C_10
REMARK    4  A    between atoms: C_3  and  C_4
REMARK    5  A    between atoms: C_4  and  CA_5
REMARK    6  A    between atoms: CA_5  and  C_6
REMARK    7  A    between atoms: CA_5  and  N_9
REMARK    8  A    between atoms: C_10  and  C_11
REMARK    9  A    between atoms: C_12  and  O_27
REMARK   10  A    between atoms: C_13  and  O_26
REMARK   11  A    between atoms: C_14  and  N_16
REMARK   12  A    between atoms: C_24  and  N_25
REMARK                            x       y       z     vdW  Elec       q    Type
REMARK                         _______ _______ _______ _____ _____    ______ ____
ROOT
ATOM      1  C   UNL     1      -4.644  10.387 -30.092  1.00  0.00    +0.161 C 
ATOM      2  C   UNL     1      -5.096  10.317 -31.551  1.00  0.00    +0.177 C 
ATOM      3  C   UNL     1      -4.233  11.372 -32.216  1.00  0.00    +0.195 C 
ATOM      4  C   UNL     1      -4.179  12.446 -31.123  1.00  0.00    +0.253 C 
ATOM      5  O   UNL     1      -4.273  11.771 -29.857  1.00  0.00    -0.347 OA
ENDROOT
BRANCH   4   6
ATOM      6  N   UNL     1      -2.965  13.240 -31.165  1.00  0.00    -0.286 N 
ATOM      7  C   UNL     1      -1.855  13.117 -30.372  1.00  0.00    +0.203 A 
ATOM      8  N   UNL     1      -0.946  14.028 -30.655  1.00  0.00    -0.231 NA
ATOM      9  C   UNL     1      -1.492  14.769 -31.681  1.00  0.00    +0.147 A 
ATOM     10  C   UNL     1      -2.749  14.293 -32.016  1.00  0.00    +0.167 A 
ATOM     11  N   UNL     1      -3.571  14.757 -32.976  1.00  0.00    -0.216 NA
ATOM     12  C   UNL     1      -3.010  15.815 -33.605  1.00  0.00    +0.225 A 
ATOM     13  N   UNL     1      -1.808  16.386 -33.386  1.00  0.00    -0.219 NA
ATOM     14  C   UNL     1      -1.018  15.869 -32.415  1.00  0.00    +0.147 A 
BRANCH  14  15
ATOM     15  N   UNL     1       0.212  16.444 -32.194  1.00  0.00    -0.341 N 
ATOM     16  H   UNL     1       0.248  17.377 -31.808  1.00  0.00    +0.144 HD
ATOM     17  H   UNL     1       1.038  15.902 -32.383  1.00  0.00    +0.144 HD
ENDBRANCH  14  15
ENDBRANCH   4   6
BRANCH   3  18
ATOM     18  O   UNL     1      -4.836  11.807 -33.439  1.00  0.00    -0.385 OA
ATOM     19  H   UNL     1      -4.617  11.123 -34.110  1.00  0.00    +0.210 HD
ENDBRANCH   3  18
BRANCH   2  20
ATOM     20  O   UNL     1      -6.474  10.706 -31.668  1.00  0.00    -0.386 OA
ATOM     21  H   UNL     1      -6.874  10.037 -32.261  1.00  0.00    +0.210 HD
ENDBRANCH   2  20
BRANCH   1  22
ATOM     22  C   UNL     1      -3.425   9.485 -29.844  1.00  0.00    +0.093 C 
BRANCH  22  24
ATOM     23  C   UNL     1      -2.465   7.803 -27.910  1.00  0.00    +0.073 C 
ATOM     24  S   UNL     1      -3.888   7.934 -29.014  1.00  0.00    -0.209 S 
BRANCH  24  25
ATOM     25  C   UNL     1      -5.086   8.571 -27.782  1.00  0.00    +0.061 C 
BRANCH  25  26
ATOM     26  C   UNL     1      -4.534   8.962 -26.413  1.00  0.00    +0.040 C 
BRANCH  26  27
ATOM     27  CA  UNL     1      -4.612  10.470 -26.163  1.00  0.00    +0.166 C 
BRANCH  27  28
ATOM     28  C   UNL     1      -4.971  10.717 -24.649  1.00  0.00    +0.372 C 
ATOM     29  O   UNL     1      -6.027  11.395 -24.465  1.00  0.00    -0.245 OA
ATOM     30  OXT UNL     1      -4.183  10.193 -23.816  1.00  0.00    -0.245 OA
ENDBRANCH  27  28
BRANCH  27  31
ATOM     31  N   UNL     1      -3.260  11.073 -26.430  1.00  0.00    -0.318 NA
ATOM     32  H1  UNL     1      -2.650  10.278 -26.632  1.00  0.00    +0.119 HD
ATOM     33  H2  UNL     1      -3.377  11.469 -27.378  1.00  0.00    +0.119 HD
ENDBRANCH  27  31
ENDBRANCH  26  27
ENDBRANCH  25  26
ENDBRANCH  24  25
ENDBRANCH  22  24
ENDBRANCH   1  22
TORSDOF 11
ENDMDL
