MODEL 1
REMARK VINA RESULT:    -7.688      0.000      0.000
REMARK INTER + INTRA:         -12.353
REMARK INTER:                 -11.732
REMARK INTRA:                  -0.621
REMARK UNBOUND:                -0.621
REMARK  Name = 
REMARK  12 active torsions:
REMARK  status: ('A' for Active; 'I' for Inactive)
REMARK    1  A    between atoms: C_1  and  S_2
REMARK    2  A    between atoms: S_2  and  C_3
REMARK    3  A    between atoms: S_2  and  C_10
REMARK    4  A    between atoms: C_3  and  C_4
REMARK    5  A    between atoms: C_4  and  CA_5
REMARK    6  A    between atoms: CA_5  and  C_6
REMARK    7  A    between atoms: CA_5  and  N_9
REMARK    8  A    between atoms: C_10  and  C_11
REMARK    9  A    between atoms: C_12  and  O_27
REMARK   10  A    between atoms: C_13  and  O_26
REMARK   11  A    between atoms: C_14  and  N_16
REMARK   12  A    between atoms: C_24  and  N_25
REMARK                            x       y       z     vdW  Elec       q    Type
REMARK                         _______ _______ _______ _____ _____    ______ ____
ROOT
ATOM      1  C   UNL     1      -3.013  16.540 -33.093  1.00  0.00    +0.161 C 
ATOM      2  C   UNL     1      -1.561  16.730 -33.532  1.00  0.00    +0.177 C 
ATOM      3  C   UNL     1      -1.199  18.065 -32.910  1.00  0.00    +0.195 C 
ATOM      4  C   UNL     1      -2.515  18.835 -33.071  1.00  0.00    +0.253 C 
ATOM      5  O   UNL     1      -3.582  17.873 -33.014  1.00  0.00    -0.347 OA
ENDROOT
BRANCH   4   6
ATOM      6  N   UNL     1      -2.712  19.845 -32.046  1.00  0.00    -0.286 N 
ATOM      7  C   UNL     1      -2.537  19.713 -30.695  1.00  0.00    +0.203 A 
ATOM      8  N   UNL     1      -2.842  20.820 -30.049  1.00  0.00    -0.231 NA
ATOM      9  C   UNL     1      -3.226  21.709 -31.030  1.00  0.00    +0.147 A 
ATOM     10  C   UNL     1      -3.151  21.122 -32.282  1.00  0.00    +0.167 A 
ATOM     11  N   UNL     1      -3.435  21.688 -33.470  1.00  0.00    -0.216 NA
ATOM     12  C   UNL     1      -3.844  22.966 -33.297  1.00  0.00    +0.225 A 
ATOM     13  N   UNL     1      -3.970  23.662 -32.148  1.00  0.00    -0.219 NA
ATOM     14  C   UNL     1      -3.659  23.045 -30.985  1.00  0.00    +0.147 A 
BRANCH  14  15
ATOM     15  N   UNL     1      -3.778  23.755 -29.813  1.00  0.00    -0.341 N 
ATOM     16  H   UNL     1      -4.694  24.078 -29.533  1.00  0.00    +0.144 HD
ATOM     17  H   UNL     1      -2.957  23.894 -29.247  1.00  0.00    +0.144 HD
ENDBRANCH  14  15
ENDBRANCH   4   6
BRANCH   3  18
ATOM     18  O   UNL     1      -0.088  18.648 -33.598  1.00  0.00    -0.385 OA
ATOM     19  H   UNL     1       0.542  17.914 -33.771  1.00  0.00    +0.210 HD
ENDBRANCH   3  18
BRANCH   2  20
ATOM     20  O   UNL     1      -1.479  16.849 -34.961  1.00  0.00    -0.386 OA
ATOM     21  H   UNL     1      -1.712  17.781 -35.150  1.00  0.00    +0.210 HD
ENDBRANCH   2  20
BRANCH   1  22
ATOM     22  C   UNL     1      -3.094  15.870 -31.713  1.00  0.00    +0.093 C 
BRANCH  22  24
ATOM     23  C   UNL     1      -4.308  13.469 -31.206  1.00  0.00    +0.073 C 
ATOM     24  S   UNL     1      -2.719  14.092 -31.800  1.00  0.00    -0.209 S 
BRANCH  24  25
ATOM     25  C   UNL     1      -2.998  13.790 -33.586  1.00  0.00    +0.061 C 
BRANCH  25  26
ATOM     26  C   UNL     1      -4.323  13.139 -33.982  1.00  0.00    +0.040 C 
BRANCH  26  27
ATOM     27  CA  UNL     1      -4.757  13.520 -35.400  1.00  0.00    +0.166 C 
BRANCH  27  28
ATOM     28  C   UNL     1      -4.693  12.238 -36.313  1.00  0.00    +0.372 C 
ATOM     29  O   UNL     1      -4.986  12.446 -37.530  1.00  0.00    -0.245 OA
ATOM     30  OXT UNL     1      -4.335  11.179 -35.730  1.00  0.00    -0.245 OA
ENDBRANCH  27  28
BRANCH  27  31
ATOM     31  N   UNL     1      -6.182  13.995 -35.356  1.00  0.00    -0.318 NA
ATOM     32  H1  UNL     1      -6.279  14.462 -34.452  1.00  0.00    +0.119 HD
ATOM     33  H2  UNL     1      -6.165  14.811 -35.991  1.00  0.00    +0.119 HD
ENDBRANCH  27  31
ENDBRANCH  26  27
ENDBRANCH  25  26
ENDBRANCH  24  25
ENDBRANCH  22  24
ENDBRANCH   1  22
TORSDOF 11
ENDMDL
MODEL 2
REMARK VINA RESULT:    -7.548      1.666      2.297
REMARK INTER + INTRA:         -12.139
REMARK INTER:                 -11.159
REMARK INTRA:                  -0.980
REMARK UNBOUND:                -0.621
REMARK  Name = 
REMARK  12 active torsions:
REMARK  status: ('A' for Active; 'I' for Inactive)
REMARK    1  A    between atoms: C_1  and  S_2
REMARK    2  A    between atoms: S_2  and  C_3
REMARK    3  A    between atoms: S_2  and  C_10
REMARK    4  A    between atoms: C_3  and  C_4
REMARK    5  A    between atoms: C_4  and  CA_5
REMARK    6  A    between atoms: CA_5  and  C_6
REMARK    7  A    between atoms: CA_5  and  N_9
REMARK    8  A    between atoms: C_10  and  C_11
REMARK    9  A    between atoms: C_12  and  O_27
REMARK   10  A    between atoms: C_13  and  O_26
REMARK   11  A    between atoms: C_14  and  N_16
REMARK   12  A    between atoms: C_24  and  N_25
REMARK                            x       y       z     vdW  Elec       q    Type
REMARK                         _______ _______ _______ _____ _____    ______ ____
ROOT
ATOM      1  C   UNL     1      -3.221  16.060 -32.278  1.00  0.00    +0.161 C 
ATOM      2  C   UNL     1      -2.533  16.028 -33.642  1.00  0.00    +0.177 C 
ATOM      3  C   UNL     1      -1.451  17.080 -33.492  1.00  0.00    +0.195 C 
ATOM      4  C   UNL     1      -2.174  18.130 -32.639  1.00  0.00    +0.253 C 
ATOM      5  O   UNL     1      -3.120  17.432 -31.813  1.00  0.00    -0.347 OA
ENDROOT
BRANCH   4   6
ATOM      6  N   UNL     1      -1.272  18.903 -31.804  1.00  0.00    -0.286 N 
ATOM      7  C   UNL     1       0.075  18.723 -31.634  1.00  0.00    +0.203 A 
ATOM      8  N   UNL     1       0.581  19.581 -30.772  1.00  0.00    -0.231 NA
ATOM      9  C   UNL     1      -0.487  20.354 -30.371  1.00  0.00    +0.147 A 
ATOM     10  C   UNL     1      -1.651  19.950 -31.005  1.00  0.00    +0.167 A 
ATOM     11  N   UNL     1      -2.882  20.479 -30.871  1.00  0.00    -0.216 NA
ATOM     12  C   UNL     1      -2.862  21.500 -29.984  1.00  0.00    +0.225 A 
ATOM     13  N   UNL     1      -1.814  21.997 -29.294  1.00  0.00    -0.219 NA
ATOM     14  C   UNL     1      -0.598  21.433 -29.477  1.00  0.00    +0.147 A 
BRANCH  14  15
ATOM     15  N   UNL     1       0.474  21.942 -28.782  1.00  0.00    -0.341 N 
ATOM     16  H   UNL     1       0.633  21.624 -27.836  1.00  0.00    +0.144 HD
ATOM     17  H   UNL     1       1.093  22.582 -29.251  1.00  0.00    +0.144 HD
ENDBRANCH  14  15
ENDBRANCH   4   6
BRANCH   3  18
ATOM     18  O   UNL     1      -1.035  17.551 -34.777  1.00  0.00    -0.385 OA
ATOM     19  H   UNL     1      -0.595  18.416 -34.623  1.00  0.00    +0.210 HD
ENDBRANCH   3  18
BRANCH   2  20
ATOM     20  O   UNL     1      -3.442  16.444 -34.674  1.00  0.00    -0.386 OA
ATOM     21  H   UNL     1      -3.782  15.611 -35.060  1.00  0.00    +0.210 HD
ENDBRANCH   2  20
BRANCH   1  22
ATOM     22  C   UNL     1      -2.517  15.131 -31.277  1.00  0.00    +0.093 C 
BRANCH  22  24
ATOM     23  C   UNL     1      -2.353  12.539 -30.413  1.00  0.00    +0.073 C 
ATOM     24  S   UNL     1      -2.264  13.465 -31.962  1.00  0.00    -0.209 S 
BRANCH  24  25
ATOM     25  C   UNL     1      -3.959  13.099 -32.555  1.00  0.00    +0.061 C 
BRANCH  25  26
ATOM     26  C   UNL     1      -4.089  12.155 -33.750  1.00  0.00    +0.040 C 
BRANCH  26  27
ATOM     27  CA  UNL     1      -4.130  12.906 -35.083  1.00  0.00    +0.166 C 
BRANCH  27  28
ATOM     28  C   UNL     1      -4.572  11.906 -36.217  1.00  0.00    +0.372 C 
ATOM     29  O   UNL     1      -4.803  12.454 -37.337  1.00  0.00    -0.245 OA
ATOM     30  OXT UNL     1      -4.616  10.693 -35.878  1.00  0.00    -0.245 OA
ENDBRANCH  27  28
BRANCH  27  31
ATOM     31  N   UNL     1      -5.160  13.996 -34.989  1.00  0.00    -0.318 NA
ATOM     32  H1  UNL     1      -6.006  13.535 -34.646  1.00  0.00    +0.119 HD
ATOM     33  H2  UNL     1      -4.866  14.509 -34.140  1.00  0.00    +0.119 HD
ENDBRANCH  27  31
ENDBRANCH  26  27
ENDBRANCH  25  26
ENDBRANCH  24  25
ENDBRANCH  22  24
ENDBRANCH   1  22
TORSDOF 11
ENDMDL
MODEL 3
REMARK VINA RESULT:    -6.942      2.436      3.157
REMARK INTER + INTRA:         -11.216
REMARK INTER:                 -10.534
REMARK INTRA:                  -0.682
REMARK UNBOUND:                -0.621
REMARK  Name = 
REMARK  12 active torsions:
REMARK  status: ('A' for Active; 'I' for Inactive)
REMARK    1  A    between atoms: C_1  and  S_2
REMARK    2  A    between atoms: S_2  and  C_3
REMARK    3  A    between atoms: S_2  and  C_10
REMARK    4  A    between atoms: C_3  and  C_4
REMARK    5  A    between atoms: C_4  and  CA_5
REMARK    6  A    between atoms: CA_5  and  C_6
REMARK    7  A    between atoms: CA_5  and  N_9
REMARK    8  A    between atoms: C_10  and  C_11
REMARK    9  A    between atoms: C_12  and  O_27
REMARK   10  A    between atoms: C_13  and  O_26
REMARK   11  A    between atoms: C_14  and  N_16
REMARK   12  A    between atoms: C_24  and  N_25
REMARK                            x       y       z     vdW  Elec       q    Type
REMARK                         _______ _______ _______ _____ _____    ______ ____
ROOT
ATOM      1  C   UNL     1      -3.306  16.017 -32.247  1.00  0.00    +0.161 C 
ATOM      2  C   UNL     1      -2.616  15.948 -33.609  1.00  0.00    +0.177 C 
ATOM      3  C   UNL     1      -1.523  16.991 -33.480  1.00  0.00    +0.195 C 
ATOM      4  C   UNL     1      -2.235  18.067 -32.652  1.00  0.00    +0.253 C 
ATOM      5  O   UNL     1      -3.190  17.398 -31.813  1.00  0.00    -0.347 OA
ENDROOT
BRANCH   4   6
ATOM      6  N   UNL     1      -1.326  18.848 -31.833  1.00  0.00    -0.286 N 
ATOM      7  C   UNL     1       0.022  18.669 -31.673  1.00  0.00    +0.203 A 
ATOM      8  N   UNL     1       0.536  19.536 -30.824  1.00  0.00    -0.231 NA
ATOM      9  C   UNL     1      -0.529  20.314 -30.422  1.00  0.00    +0.147 A 
ATOM     10  C   UNL     1      -1.698  19.903 -31.041  1.00  0.00    +0.167 A 
ATOM     11  N   UNL     1      -2.928  20.434 -30.902  1.00  0.00    -0.216 NA
ATOM     12  C   UNL     1      -2.900  21.463 -30.025  1.00  0.00    +0.225 A 
ATOM     13  N   UNL     1      -1.846  21.967 -29.349  1.00  0.00    -0.219 NA
ATOM     14  C   UNL     1      -0.631  21.401 -29.538  1.00  0.00    +0.147 A 
BRANCH  14  15
ATOM     15  N   UNL     1       0.447  21.917 -28.857  1.00  0.00    -0.341 N 
ATOM     16  H   UNL     1       0.353  22.097 -27.867  1.00  0.00    +0.144 HD
ATOM     17  H   UNL     1       1.309  22.060 -29.356  1.00  0.00    +0.144 HD
ENDBRANCH  14  15
ENDBRANCH   4   6
BRANCH   3  18
ATOM     18  O   UNL     1      -1.099  17.428 -34.775  1.00  0.00    -0.385 OA
ATOM     19  H   UNL     1      -1.564  16.853 -35.424  1.00  0.00    +0.210 HD
ENDBRANCH   3  18
BRANCH   2  20
ATOM     20  O   UNL     1      -3.519  16.350 -34.651  1.00  0.00    -0.386 OA
ATOM     21  H   UNL     1      -3.805  15.514 -35.073  1.00  0.00    +0.210 HD
ENDBRANCH   2  20
BRANCH   1  22
ATOM     22  C   UNL     1      -2.614  15.103 -31.225  1.00  0.00    +0.093 C 
BRANCH  22  24
ATOM     23  C   UNL     1      -1.525  12.716 -30.443  1.00  0.00    +0.073 C 
ATOM     24  S   UNL     1      -2.277  13.452 -31.911  1.00  0.00    -0.209 S 
BRANCH  24  25
ATOM     25  C   UNL     1      -3.933  12.686 -31.740  1.00  0.00    +0.061 C 
BRANCH  25  26
ATOM     26  C   UNL     1      -3.984  11.167 -31.586  1.00  0.00    +0.040 C 
BRANCH  26  27
ATOM     27  CA  UNL     1      -4.740  10.492 -32.733  1.00  0.00    +0.166 C 
BRANCH  27  28
ATOM     28  C   UNL     1      -6.044   9.823 -32.158  1.00  0.00    +0.372 C 
ATOM     29  O   UNL     1      -6.575   8.963 -32.925  1.00  0.00    -0.245 OA
ATOM     30  OXT UNL     1      -6.382  10.204 -31.004  1.00  0.00    -0.245 OA
ENDBRANCH  27  28
BRANCH  27  31
ATOM     31  N   UNL     1      -5.150  11.544 -33.725  1.00  0.00    -0.318 NA
ATOM     32  H1  UNL     1      -5.136  11.074 -34.633  1.00  0.00    +0.119 HD
ATOM     33  H2  UNL     1      -6.169  11.618 -33.564  1.00  0.00    +0.119 HD
ENDBRANCH  27  31
ENDBRANCH  26  27
ENDBRANCH  25  26
ENDBRANCH  24  25
ENDBRANCH  22  24
ENDBRANCH   1  22
TORSDOF 11
ENDMDL
MODEL 4
REMARK VINA RESULT:    -6.935      2.968      4.460
REMARK INTER + INTRA:         -11.205
REMARK INTER:                 -10.196
REMARK INTRA:                  -1.009
REMARK UNBOUND:                -0.621
REMARK  Name = 
REMARK  12 active torsions:
REMARK  status: ('A' for Active; 'I' for Inactive)
REMARK    1  A    between atoms: C_1  and  S_2
REMARK    2  A    between atoms: S_2  and  C_3
REMARK    3  A    between atoms: S_2  and  C_10
REMARK    4  A    between atoms: C_3  and  C_4
REMARK    5  A    between atoms: C_4  and  CA_5
REMARK    6  A    between atoms: CA_5  and  C_6
REMARK    7  A    between atoms: CA_5  and  N_9
REMARK    8  A    between atoms: C_10  and  C_11
REMARK    9  A    between atoms: C_12  and  O_27
REMARK   10  A    between atoms: C_13  and  O_26
REMARK   11  A    between atoms: C_14  and  N_16
REMARK   12  A    between atoms: C_24  and  N_25
REMARK                            x       y       z     vdW  Elec       q    Type
REMARK                         _______ _______ _______ _____ _____    ______ ____
ROOT
ATOM      1  C   UNL     1      -1.840  12.077 -32.414  1.00  0.00    +0.161 C 
ATOM      2  C   UNL     1      -1.194  12.169 -31.032  1.00  0.00    +0.177 C 
ATOM      3  C   UNL     1      -1.341  13.639 -30.694  1.00  0.00    +0.195 C 
ATOM      4  C   UNL     1      -1.117  14.284 -32.067  1.00  0.00    +0.253 C 
ATOM      5  O   UNL     1      -1.586  13.353 -33.057  1.00  0.00    -0.347 OA
ENDROOT
BRANCH   4   6
ATOM      6  N   UNL     1      -1.810  15.551 -32.220  1.00  0.00    -0.286 N 
ATOM      7  C   UNL     1      -3.160  15.778 -32.189  1.00  0.00    +0.203 A 
ATOM      8  N   UNL     1      -3.451  17.045 -32.400  1.00  0.00    -0.231 NA
ATOM      9  C   UNL     1      -2.232  17.666 -32.571  1.00  0.00    +0.147 A 
ATOM     10  C   UNL     1      -1.196  16.753 -32.460  1.00  0.00    +0.167 A 
ATOM     11  N   UNL     1       0.125  16.998 -32.555  1.00  0.00    -0.216 NA
ATOM     12  C   UNL     1       0.344  18.309 -32.804  1.00  0.00    +0.225 A 
ATOM     13  N   UNL     1      -0.558  19.304 -32.940  1.00  0.00    -0.219 NA
ATOM     14  C   UNL     1      -1.872  19.001 -32.822  1.00  0.00    +0.147 A 
BRANCH  14  15
ATOM     15  N   UNL     1      -2.794  20.014 -32.952  1.00  0.00    -0.341 N 
ATOM     16  H   UNL     1      -3.770  19.803 -32.794  1.00  0.00    +0.144 HD
ATOM     17  H   UNL     1      -2.465  20.942 -33.159  1.00  0.00    +0.144 HD
ENDBRANCH  14  15
ENDBRANCH   4   6
BRANCH   3  18
ATOM     18  O   UNL     1      -0.382  14.019 -29.702  1.00  0.00    -0.385 OA
ATOM     19  H   UNL     1      -0.735  13.698 -28.843  1.00  0.00    +0.210 HD
ENDBRANCH   3  18
BRANCH   2  20
ATOM     20  O   UNL     1       0.205  11.850 -31.110  1.00  0.00    -0.386 OA
ATOM     21  H   UNL     1       0.309  11.044 -30.563  1.00  0.00    +0.210 HD
ENDBRANCH   2  20
BRANCH   1  22
ATOM     22  C   UNL     1      -3.357  11.856 -32.305  1.00  0.00    +0.093 C 
BRANCH  22  24
ATOM     23  C   UNL     1      -5.269   9.897 -32.336  1.00  0.00    +0.073 C 
ATOM     24  S   UNL     1      -3.923  10.501 -33.379  1.00  0.00    -0.209 S 
BRANCH  24  25
ATOM     25  C   UNL     1      -4.949  11.440 -34.572  1.00  0.00    +0.061 C 
BRANCH  25  26
ATOM     26  C   UNL     1      -4.217  12.167 -35.698  1.00  0.00    +0.040 C 
BRANCH  26  27
ATOM     27  CA  UNL     1      -4.915  13.468 -36.102  1.00  0.00    +0.166 C 
BRANCH  27  28
ATOM     28  C   UNL     1      -6.084  13.129 -37.101  1.00  0.00    +0.372 C 
ATOM     29  O   UNL     1      -7.113  13.860 -36.972  1.00  0.00    -0.245 OA
ATOM     30  OXT UNL     1      -5.843  12.198 -37.917  1.00  0.00    -0.245 OA
ENDBRANCH  27  28
BRANCH  27  31
ATOM     31  N   UNL     1      -5.514  14.094 -34.873  1.00  0.00    -0.318 NA
ATOM     32  H1  UNL     1      -6.278  13.471 -34.602  1.00  0.00    +0.119 HD
ATOM     33  H2  UNL     1      -4.816  13.866 -34.144  1.00  0.00    +0.119 HD
ENDBRANCH  27  31
ENDBRANCH  26  27
ENDBRANCH  25  26
ENDBRANCH  24  25
ENDBRANCH  22  24
ENDBRANCH   1  22
TORSDOF 11
ENDMDL
MODEL 5
REMARK VINA RESULT:    -6.828      4.294      6.085
REMARK INTER + INTRA:         -11.042
REMARK INTER:                  -9.602
REMARK INTRA:                  -1.440
REMARK UNBOUND:                -0.621
REMARK  Name = 
REMARK  12 active torsions:
REMARK  status: ('A' for Active; 'I' for Inactive)
REMARK    1  A    between atoms: C_1  and  S_2
REMARK    2  A    between atoms: S_2  and  C_3
REMARK    3  A    between atoms: S_2  and  C_10
REMARK    4  A    between atoms: C_3  and  C_4
REMARK    5  A    between atoms: C_4  and  CA_5
REMARK    6  A    between atoms: CA_5  and  C_6
REMARK    7  A    between atoms: CA_5  and  N_9
REMARK    8  A    between atoms: C_10  and  C_11
REMARK    9  A    between atoms: C_12  and  O_27
REMARK   10  A    between atoms: C_13  and  O_26
REMARK   11  A    between atoms: C_14  and  N_16
REMARK   12  A    between atoms: C_24  and  N_25
REMARK                            x       y       z     vdW  Elec       q    Type
REMARK                         _______ _______ _______ _____ _____    ______ ____
ROOT
ATOM      1  C   UNL     1      -2.843  11.819 -31.254  1.00  0.00    +0.161 C 
ATOM      2  C   UNL     1      -4.082  12.159 -32.083  1.00  0.00    +0.177 C 
ATOM      3  C   UNL     1      -3.718  13.504 -32.684  1.00  0.00    +0.195 C 
ATOM      4  C   UNL     1      -2.948  14.149 -31.526  1.00  0.00    +0.253 C 
ATOM      5  O   UNL     1      -2.312  13.088 -30.793  1.00  0.00    -0.347 OA
ENDROOT
BRANCH   4   6
ATOM      6  N   UNL     1      -1.950  15.105 -31.970  1.00  0.00    -0.286 N 
ATOM      7  C   UNL     1      -0.616  14.882 -32.189  1.00  0.00    +0.203 A 
ATOM      8  N   UNL     1       0.012  15.982 -32.552  1.00  0.00    -0.231 NA
ATOM      9  C   UNL     1      -0.961  16.958 -32.573  1.00  0.00    +0.147 A 
ATOM     10  C   UNL     1      -2.192  16.431 -32.216  1.00  0.00    +0.167 A 
ATOM     11  N   UNL     1      -3.369  17.080 -32.139  1.00  0.00    -0.216 NA
ATOM     12  C   UNL     1      -3.208  18.386 -32.451  1.00  0.00    +0.225 A 
ATOM     13  N   UNL     1      -2.080  19.034 -32.810  1.00  0.00    -0.219 NA
ATOM     14  C   UNL     1      -0.928  18.328 -32.882  1.00  0.00    +0.147 A 
BRANCH  14  15
ATOM     15  N   UNL     1       0.223  18.983 -33.256  1.00  0.00    -0.341 N 
ATOM     16  H   UNL     1       0.198  19.575 -34.075  1.00  0.00    +0.144 HD
ATOM     17  H   UNL     1       1.041  18.889 -32.679  1.00  0.00    +0.144 HD
ENDBRANCH  14  15
ENDBRANCH   4   6
BRANCH   3  18
ATOM     18  O   UNL     1      -4.902  14.210 -33.070  1.00  0.00    -0.385 OA
ATOM     19  H   UNL     1      -4.778  14.455 -34.014  1.00  0.00    +0.210 HD
ENDBRANCH   3  18
BRANCH   2  20
ATOM     20  O   UNL     1      -5.226  12.328 -31.231  1.00  0.00    -0.386 OA
ATOM     21  H   UNL     1      -5.114  13.215 -30.832  1.00  0.00    +0.210 HD
ENDBRANCH   2  20
BRANCH   1  22
ATOM     22  C   UNL     1      -1.783  11.104 -32.106  1.00  0.00    +0.093 C 
BRANCH  22  24
ATOM     23  C   UNL     1      -0.658   8.685 -32.721  1.00  0.00    +0.073 C 
ATOM     24  S   UNL     1      -2.300   9.418 -32.556  1.00  0.00    -0.209 S 
BRANCH  24  25
ATOM     25  C   UNL     1      -2.695   8.747 -30.897  1.00  0.00    +0.061 C 
BRANCH  25  26
ATOM     26  C   UNL     1      -3.850   7.751 -30.807  1.00  0.00    +0.040 C 
BRANCH  26  27
ATOM     27  CA  UNL     1      -4.708   7.968 -29.558  1.00  0.00    +0.166 C 
BRANCH  27  28
ATOM     28  C   UNL     1      -5.357   9.401 -29.629  1.00  0.00    +0.372 C 
ATOM     29  O   UNL     1      -4.948  10.206 -28.738  1.00  0.00    -0.245 OA
ATOM     30  OXT UNL     1      -6.177   9.576 -30.571  1.00  0.00    -0.245 OA
ENDBRANCH  27  28
BRANCH  27  31
ATOM     31  N   UNL     1      -5.815   6.951 -29.553  1.00  0.00    -0.318 NA
ATOM     32  H1  UNL     1      -5.604   6.323 -30.332  1.00  0.00    +0.119 HD
ATOM     33  H2  UNL     1      -5.561   6.349 -28.750  1.00  0.00    +0.119 HD
ENDBRANCH  27  31
ENDBRANCH  26  27
ENDBRANCH  25  26
ENDBRANCH  24  25
ENDBRANCH  22  24
ENDBRANCH   1  22
TORSDOF 11
ENDMDL
MODEL 6
REMARK VINA RESULT:    -6.715      6.524      8.531
REMARK INTER + INTRA:         -10.868
REMARK INTER:                  -9.378
REMARK INTRA:                  -1.491
REMARK UNBOUND:                -0.621
REMARK  Name = 
REMARK  12 active torsions:
REMARK  status: ('A' for Active; 'I' for Inactive)
REMARK    1  A    between atoms: C_1  and  S_2
REMARK    2  A    between atoms: S_2  and  C_3
REMARK    3  A    between atoms: S_2  and  C_10
REMARK    4  A    between atoms: C_3  and  C_4
REMARK    5  A    between atoms: C_4  and  CA_5
REMARK    6  A    between atoms: CA_5  and  C_6
REMARK    7  A    between atoms: CA_5  and  N_9
REMARK    8  A    between atoms: C_10  and  C_11
REMARK    9  A    between atoms: C_12  and  O_27
REMARK   10  A    between atoms: C_13  and  O_26
REMARK   11  A    between atoms: C_14  and  N_16
REMARK   12  A    between atoms: C_24  and  N_25
REMARK                            x       y       z     vdW  Elec       q    Type
REMARK                         _______ _______ _______ _____ _____    ______ ____
ROOT
ATOM      1  C   UNL     1      -2.133   7.657 -35.894  1.00  0.00    +0.161 C 
ATOM      2  C   UNL     1      -0.767   8.100 -36.420  1.00  0.00    +0.177 C 
ATOM      3  C   UNL     1      -0.754   9.582 -36.100  1.00  0.00    +0.195 C 
ATOM      4  C   UNL     1      -2.217   9.956 -36.363  1.00  0.00    +0.253 C 
ATOM      5  O   UNL     1      -3.014   8.797 -36.068  1.00  0.00    -0.347 OA
ENDROOT
BRANCH   4   6
ATOM      6  N   UNL     1      -2.670  11.079 -35.562  1.00  0.00    -0.286 N 
ATOM      7  C   UNL     1      -2.150  11.526 -34.377  1.00  0.00    +0.203 A 
ATOM      8  N   UNL     1      -2.829  12.549 -33.897  1.00  0.00    -0.231 NA
ATOM      9  C   UNL     1      -3.829  12.775 -34.818  1.00  0.00    +0.147 A 
ATOM     10  C   UNL     1      -3.747  11.871 -35.864  1.00  0.00    +0.167 A 
ATOM     11  N   UNL     1      -4.544  11.798 -36.947  1.00  0.00    -0.216 NA
ATOM     12  C   UNL     1      -5.505  12.749 -36.890  1.00  0.00    +0.225 A 
ATOM     13  N   UNL     1      -5.708  13.685 -35.940  1.00  0.00    -0.219 NA
ATOM     14  C   UNL     1      -4.868  13.720 -34.880  1.00  0.00    +0.147 A 
BRANCH  14  15
ATOM     15  N   UNL     1      -5.068  14.678 -33.914  1.00  0.00    -0.341 N 
ATOM     16  H   UNL     1      -4.986  14.411 -32.943  1.00  0.00    +0.144 HD
ATOM     17  H   UNL     1      -5.246  15.625 -34.204  1.00  0.00    +0.144 HD
ENDBRANCH  14  15
ENDBRANCH   4   6
BRANCH   3  18
ATOM     18  O   UNL     1       0.187  10.261 -36.937  1.00  0.00    -0.385 OA
ATOM     19  H   UNL     1      -0.209  11.138 -37.139  1.00  0.00    +0.210 HD
ENDBRANCH   3  18
BRANCH   2  20
ATOM     20  O   UNL     1      -0.700   7.933 -37.845  1.00  0.00    -0.386 OA
ATOM     21  H   UNL     1      -0.441   6.998 -37.976  1.00  0.00    +0.210 HD
ENDBRANCH   2  20
BRANCH   1  22
ATOM     22  C   UNL     1      -2.063   7.292 -34.403  1.00  0.00    +0.093 C 
BRANCH  22  24
ATOM     23  C   UNL     1      -3.642   6.209 -32.447  1.00  0.00    +0.073 C 
ATOM     24  S   UNL     1      -3.629   7.642 -33.546  1.00  0.00    -0.209 S 
BRANCH  24  25
ATOM     25  C   UNL     1      -3.057   8.877 -32.319  1.00  0.00    +0.061 C 
BRANCH  25  26
ATOM     26  C   UNL     1      -4.123   9.530 -31.440  1.00  0.00    +0.040 C 
BRANCH  26  27
ATOM     27  CA  UNL     1      -5.093  10.395 -32.249  1.00  0.00    +0.166 C 
BRANCH  27  28
ATOM     28  C   UNL     1      -6.531   9.756 -32.169  1.00  0.00    +0.372 C 
ATOM     29  O   UNL     1      -7.317  10.334 -31.358  1.00  0.00    -0.245 OA
ATOM     30  OXT UNL     1      -6.727   8.774 -32.935  1.00  0.00    -0.245 OA
ENDBRANCH  27  28
BRANCH  27  31
ATOM     31  N   UNL     1      -5.151  11.762 -31.627  1.00  0.00    -0.318 NA
ATOM     32  H1  UNL     1      -4.572  11.698 -30.787  1.00  0.00    +0.119 HD
ATOM     33  H2  UNL     1      -4.530  12.314 -32.244  1.00  0.00    +0.119 HD
ENDBRANCH  27  31
ENDBRANCH  26  27
ENDBRANCH  25  26
ENDBRANCH  24  25
ENDBRANCH  22  24
ENDBRANCH   1  22
TORSDOF 11
ENDMDL
MODEL 7
REMARK VINA RESULT:    -6.536      3.643      5.339
REMARK INTER + INTRA:         -10.596
REMARK INTER:                  -9.844
REMARK INTRA:                  -0.751
REMARK UNBOUND:                -0.621
REMARK  Name = 
REMARK  12 active torsions:
REMARK  status: ('A' for Active; 'I' for Inactive)
REMARK    1  A    between atoms: C_1  and  S_2
REMARK    2  A    between atoms: S_2  and  C_3
REMARK    3  A    between atoms: S_2  and  C_10
REMARK    4  A    between atoms: C_3  and  C_4
REMARK    5  A    between atoms: C_4  and  CA_5
REMARK    6  A    between atoms: CA_5  and  C_6
REMARK    7  A    between atoms: CA_5  and  N_9
REMARK    8  A    between atoms: C_10  and  C_11
REMARK    9  A    between atoms: C_12  and  O_27
REMARK   10  A    between atoms: C_13  and  O_26
REMARK   11  A    between atoms: C_14  and  N_16
REMARK   12  A    between atoms: C_24  and  N_25
REMARK                            x       y       z     vdW  Elec       q    Type
REMARK                         _______ _______ _______ _____ _____    ______ ____
ROOT
ATOM      1  C   UNL     1      -2.792  12.020 -31.250  1.00  0.00    +0.161 C 
ATOM      2  C   UNL     1      -4.022  12.332 -32.103  1.00  0.00    +0.177 C 
ATOM      3  C   UNL     1      -3.669  13.673 -32.715  1.00  0.00    +0.195 C 
ATOM      4  C   UNL     1      -2.927  14.345 -31.553  1.00  0.00    +0.253 C 
ATOM      5  O   UNL     1      -2.286  13.303 -30.797  1.00  0.00    -0.347 OA
ENDROOT
BRANCH   4   6
ATOM      6  N   UNL     1      -1.935  15.310 -31.993  1.00  0.00    -0.286 N 
ATOM      7  C   UNL     1      -0.601  15.097 -32.219  1.00  0.00    +0.203 A 
ATOM      8  N   UNL     1       0.019  16.203 -32.576  1.00  0.00    -0.231 NA
ATOM      9  C   UNL     1      -0.960  17.173 -32.587  1.00  0.00    +0.147 A 
ATOM     10  C   UNL     1      -2.186  16.636 -32.229  1.00  0.00    +0.167 A 
ATOM     11  N   UNL     1      -3.367  17.278 -32.144  1.00  0.00    -0.216 NA
ATOM     12  C   UNL     1      -3.214  18.587 -32.447  1.00  0.00    +0.225 A 
ATOM     13  N   UNL     1      -2.092  19.244 -32.806  1.00  0.00    -0.219 NA
ATOM     14  C   UNL     1      -0.935  18.545 -32.886  1.00  0.00    +0.147 A 
BRANCH  14  15
ATOM     15  N   UNL     1       0.210  19.210 -33.259  1.00  0.00    -0.341 N 
ATOM     16  H   UNL     1       0.995  18.671 -33.597  1.00  0.00    +0.144 HD
ATOM     17  H   UNL     1       0.216  20.216 -33.226  1.00  0.00    +0.144 HD
ENDBRANCH  14  15
ENDBRANCH   4   6
BRANCH   3  18
ATOM     18  O   UNL     1      -4.856  14.357 -33.129  1.00  0.00    -0.385 OA
ATOM     19  H   UNL     1      -5.609  13.849 -32.754  1.00  0.00    +0.210 HD
ENDBRANCH   3  18
BRANCH   2  20
ATOM     20  O   UNL     1      -5.182  12.494 -31.271  1.00  0.00    -0.386 OA
ATOM     21  H   UNL     1      -5.864  11.920 -31.676  1.00  0.00    +0.210 HD
ENDBRANCH   2  20
BRANCH   1  22
ATOM     22  C   UNL     1      -1.708  11.310 -32.076  1.00  0.00    +0.093 C 
BRANCH  22  24
ATOM     23  C   UNL     1      -0.870   9.782 -34.186  1.00  0.00    +0.073 C 
ATOM     24  S   UNL     1      -2.405  10.478 -33.535  1.00  0.00    -0.209 S 
BRANCH  24  25
ATOM     25  C   UNL     1      -3.048   8.948 -32.759  1.00  0.00    +0.061 C 
BRANCH  25  26
ATOM     26  C   UNL     1      -4.019   8.104 -33.583  1.00  0.00    +0.040 C 
BRANCH  26  27
ATOM     27  CA  UNL     1      -3.907   8.388 -35.083  1.00  0.00    +0.166 C 
BRANCH  27  28
ATOM     28  C   UNL     1      -3.257   7.140 -35.790  1.00  0.00    +0.372 C 
ATOM     29  O   UNL     1      -2.404   6.522 -35.083  1.00  0.00    -0.245 OA
ATOM     30  OXT UNL     1      -3.680   6.898 -36.953  1.00  0.00    -0.245 OA
ENDBRANCH  27  28
BRANCH  27  31
ATOM     31  N   UNL     1      -5.289   8.578 -35.642  1.00  0.00    -0.318 NA
ATOM     32  H1  UNL     1      -5.560   9.525 -35.369  1.00  0.00    +0.119 HD
ATOM     33  H2  UNL     1      -5.105   8.716 -36.651  1.00  0.00    +0.119 HD
ENDBRANCH  27  31
ENDBRANCH  26  27
ENDBRANCH  25  26
ENDBRANCH  24  25
ENDBRANCH  22  24
ENDBRANCH   1  22
TORSDOF 11
ENDMDL
MODEL 8
REMARK VINA RESULT:    -6.532      3.712      5.452
REMARK INTER + INTRA:         -10.590
REMARK INTER:                  -9.450
REMARK INTRA:                  -1.140
REMARK UNBOUND:                -0.621
REMARK  Name = 
REMARK  12 active torsions:
REMARK  status: ('A' for Active; 'I' for Inactive)
REMARK    1  A    between atoms: C_1  and  S_2
REMARK    2  A    between atoms: S_2  and  C_3
REMARK    3  A    between atoms: S_2  and  C_10
REMARK    4  A    between atoms: C_3  and  C_4
REMARK    5  A    between atoms: C_4  and  CA_5
REMARK    6  A    between atoms: CA_5  and  C_6
REMARK    7  A    between atoms: CA_5  and  N_9
REMARK    8  A    between atoms: C_10  and  C_11
REMARK    9  A    between atoms: C_12  and  O_27
REMARK   10  A    between atoms: C_13  and  O_26
REMARK   11  A    between atoms: C_14  and  N_16
REMARK   12  A    between atoms: C_24  and  N_25
REMARK                            x       y       z     vdW  Elec       q    Type
REMARK                         _______ _______ _______ _____ _____    ______ ____
ROOT
ATOM      1  C   UNL     1      -3.713  13.183 -32.777  1.00  0.00    +0.161 C 
ATOM      2  C   UNL     1      -4.144  14.127 -33.900  1.00  0.00    +0.177 C 
ATOM      3  C   UNL     1      -2.991  15.110 -33.967  1.00  0.00    +0.195 C 
ATOM      4  C   UNL     1      -2.630  15.246 -32.483  1.00  0.00    +0.253 C 
ATOM      5  O   UNL     1      -2.943  13.993 -31.850  1.00  0.00    -0.347 OA
ENDROOT
BRANCH   4   6
ATOM      6  N   UNL     1      -1.231  15.568 -32.265  1.00  0.00    -0.286 N 
ATOM      7  C   UNL     1      -0.240  14.736 -31.818  1.00  0.00    +0.203 A 
ATOM      8  N   UNL     1       0.912  15.364 -31.698  1.00  0.00    -0.231 NA
ATOM      9  C   UNL     1       0.654  16.660 -32.090  1.00  0.00    +0.147 A 
ATOM     10  C   UNL     1      -0.676  16.807 -32.450  1.00  0.00    +0.167 A 
ATOM     11  N   UNL     1      -1.285  17.923 -32.895  1.00  0.00    -0.216 NA
ATOM     12  C   UNL     1      -0.408  18.952 -32.939  1.00  0.00    +0.225 A 
ATOM     13  N   UNL     1       0.903  18.957 -32.619  1.00  0.00    -0.219 NA
ATOM     14  C   UNL     1       1.464  17.803 -32.188  1.00  0.00    +0.147 A 
BRANCH  14  15
ATOM     15  N   UNL     1       2.802  17.802 -31.868  1.00  0.00    -0.341 N 
ATOM     16  H   UNL     1       3.475  17.628 -32.602  1.00  0.00    +0.144 HD
ATOM     17  H   UNL     1       3.072  18.018 -30.923  1.00  0.00    +0.144 HD
ENDBRANCH  14  15
ENDBRANCH   4   6
BRANCH   3  18
ATOM     18  O   UNL     1      -3.415  16.330 -34.584  1.00  0.00    -0.385 OA
ATOM     19  H   UNL     1      -3.128  17.054 -33.984  1.00  0.00    +0.210 HD
ENDBRANCH   3  18
BRANCH   2  20
ATOM     20  O   UNL     1      -5.337  14.836 -33.531  1.00  0.00    -0.386 OA
ATOM     21  H   UNL     1      -6.060  14.185 -33.638  1.00  0.00    +0.210 HD
ENDBRANCH   2  20
BRANCH   1  22
ATOM     22  C   UNL     1      -2.830  12.046 -33.312  1.00  0.00    +0.093 C 
BRANCH  22  24
ATOM     23  C   UNL     1      -2.201  10.115 -35.148  1.00  0.00    +0.073 C 
ATOM     24  S   UNL     1      -3.511  11.320 -34.835  1.00  0.00    -0.209 S 
BRANCH  24  25
ATOM     25  C   UNL     1      -4.735  10.159 -34.120  1.00  0.00    +0.061 C 
BRANCH  25  26
ATOM     26  C   UNL     1      -4.391   9.529 -32.771  1.00  0.00    +0.040 C 
BRANCH  26  27
ATOM     27  CA  UNL     1      -5.606   9.437 -31.845  1.00  0.00    +0.166 C 
BRANCH  27  28
ATOM     28  C   UNL     1      -5.113   9.500 -30.351  1.00  0.00    +0.372 C 
ATOM     29  O   UNL     1      -3.901   9.848 -30.213  1.00  0.00    -0.245 OA
ATOM     30  OXT UNL     1      -5.986   9.224 -29.484  1.00  0.00    -0.245 OA
ENDBRANCH  27  28
BRANCH  27  31
ATOM     31  N   UNL     1      -6.495  10.623 -32.098  1.00  0.00    -0.318 NA
ATOM     32  H1  UNL     1      -7.447  10.254 -32.065  1.00  0.00    +0.119 HD
ATOM     33  H2  UNL     1      -6.455  11.128 -31.195  1.00  0.00    +0.119 HD
ENDBRANCH  27  31
ENDBRANCH  26  27
ENDBRANCH  25  26
ENDBRANCH  24  25
ENDBRANCH  22  24
ENDBRANCH   1  22
TORSDOF 11
ENDMDL
MODEL 9
REMARK VINA RESULT:    -6.508      5.688      8.574
REMARK INTER + INTRA:         -10.553
REMARK INTER:                  -9.065
REMARK INTRA:                  -1.489
REMARK UNBOUND:                -0.621
REMARK  Name = 
REMARK  12 active torsions:
REMARK  status: ('A' for Active; 'I' for Inactive)
REMARK    1  A    between atoms: C_1  and  S_2
REMARK    2  A    between atoms: S_2  and  C_3
REMARK    3  A    between atoms: S_2  and  C_10
REMARK    4  A    between atoms: C_3  and  C_4
REMARK    5  A    between atoms: C_4  and  CA_5
REMARK    6  A    between atoms: CA_5  and  C_6
REMARK    7  A    between atoms: CA_5  and  N_9
REMARK    8  A    between atoms: C_10  and  C_11
REMARK    9  A    between atoms: C_12  and  O_27
REMARK   10  A    between atoms: C_13  and  O_26
REMARK   11  A    between atoms: C_14  and  N_16
REMARK   12  A    between atoms: C_24  and  N_25
REMARK                            x       y       z     vdW  Elec       q    Type
REMARK                         _______ _______ _______ _____ _____    ______ ____
ROOT
ATOM      1  C   UNL     1      -4.971   9.715 -30.400  1.00  0.00    +0.161 C 
ATOM      2  C   UNL     1      -5.496   9.838 -31.831  1.00  0.00    +0.177 C 
ATOM      3  C   UNL     1      -4.634  10.945 -32.406  1.00  0.00    +0.195 C 
ATOM      4  C   UNL     1      -4.494  11.873 -31.193  1.00  0.00    +0.253 C 
ATOM      5  O   UNL     1      -4.546  11.049 -30.017  1.00  0.00    -0.347 OA
ENDROOT
BRANCH   4   6
ATOM      6  N   UNL     1      -3.259  12.637 -31.201  1.00  0.00    -0.286 N 
ATOM      7  C   UNL     1      -2.154  12.450 -30.415  1.00  0.00    +0.203 A 
ATOM      8  N   UNL     1      -1.220  13.349 -30.657  1.00  0.00    -0.231 NA
ATOM      9  C   UNL     1      -1.746  14.149 -31.649  1.00  0.00    +0.147 A 
ATOM     10  C   UNL     1      -3.015  13.720 -32.004  1.00  0.00    +0.167 A 
ATOM     11  N   UNL     1      -3.824  14.248 -32.942  1.00  0.00    -0.216 NA
ATOM     12  C   UNL     1      -3.236  15.318 -33.524  1.00  0.00    +0.225 A 
ATOM     13  N   UNL     1      -2.019  15.847 -33.280  1.00  0.00    -0.219 NA
ATOM     14  C   UNL     1      -1.243  15.268 -32.334  1.00  0.00    +0.147 A 
BRANCH  14  15
ATOM     15  N   UNL     1       0.001  15.799 -32.088  1.00  0.00    -0.341 N 
ATOM     16  H   UNL     1       0.657  15.262 -31.537  1.00  0.00    +0.144 HD
ATOM     17  H   UNL     1       0.237  16.686 -32.500  1.00  0.00    +0.144 HD
ENDBRANCH  14  15
ENDBRANCH   4   6
BRANCH   3  18
ATOM     18  O   UNL     1      -5.282  11.543 -33.533  1.00  0.00    -0.385 OA
ATOM     19  H   UNL     1      -4.636  12.180 -33.914  1.00  0.00    +0.210 HD
ENDBRANCH   3  18
BRANCH   2  20
ATOM     20  O   UNL     1      -6.865  10.271 -31.828  1.00  0.00    -0.386 OA
ATOM     21  H   UNL     1      -7.075  10.435 -30.886  1.00  0.00    +0.210 HD
ENDBRANCH   2  20
BRANCH   1  22
ATOM     22  C   UNL     1      -3.770   8.760 -30.328  1.00  0.00    +0.093 C 
BRANCH  22  24
ATOM     23  C   UNL     1      -2.565   7.731 -28.095  1.00  0.00    +0.073 C 
ATOM     24  S   UNL     1      -4.031   7.435 -29.109  1.00  0.00    -0.209 S 
BRANCH  24  25
ATOM     25  C   UNL     1      -5.250   8.244 -28.007  1.00  0.00    +0.061 C 
BRANCH  25  26
ATOM     26  C   UNL     1      -4.744   8.734 -26.651  1.00  0.00    +0.040 C 
BRANCH  26  27
ATOM     27  CA  UNL     1      -5.042  10.217 -26.419  1.00  0.00    +0.166 C 
BRANCH  27  28
ATOM     28  C   UNL     1      -5.085  10.492 -24.869  1.00  0.00    +0.372 C 
ATOM     29  O   UNL     1      -4.264   9.801 -24.192  1.00  0.00    -0.245 OA
ATOM     30  OXT UNL     1      -5.905  11.376 -24.501  1.00  0.00    -0.245 OA
ENDBRANCH  27  28
BRANCH  27  31
ATOM     31  N   UNL     1      -3.925  11.031 -27.011  1.00  0.00    -0.318 NA
ATOM     32  H1  UNL     1      -3.325  11.274 -26.219  1.00  0.00    +0.119 HD
ATOM     33  H2  UNL     1      -3.345  10.309 -27.473  1.00  0.00    +0.119 HD
ENDBRANCH  27  31
ENDBRANCH  26  27
ENDBRANCH  25  26
ENDBRANCH  24  25
ENDBRANCH  22  24
ENDBRANCH   1  22
TORSDOF 11
ENDMDL
