MODEL 1
REMARK VINA RESULT:    -8.170      0.000      0.000
REMARK INTER + INTRA:         -15.690
REMARK INTER:                 -13.663
REMARK INTRA:                  -2.027
REMARK UNBOUND:                -2.027
REMARK  Name = 
REMARK  18 active torsions:
REMARK  status: ('A' for Active; 'I' for Inactive)
REMARK    1  A    between atoms: C_1  and  C_2
REMARK    2  A    between atoms: C_2  and  C_3
REMARK    3  A    between atoms: C_2  and  N_4
REMARK    4  A    between atoms: N_4  and  C_5
REMARK    5  A    between atoms: N_4  and  C_22
REMARK    6  A    between atoms: C_5  and  C_6
REMARK    7  A    between atoms: C_6  and  C_7
REMARK    8  A    between atoms: C_7  and  N_8
REMARK    9  A    between atoms: N_11  and  C_12
REMARK   10  A    between atoms: C_15  and  C_18
REMARK   11  A    between atoms: C_18  and  C_19
REMARK   12  A    between atoms: C_18  and  C_20
REMARK   13  A    between atoms: C_18  and  C_21
REMARK   14  A    between atoms: C_22  and  C_23
REMARK   15  A    between atoms: C_24  and  O_40
REMARK   16  A    between atoms: C_25  and  O_39
REMARK   17  A    between atoms: C_26  and  N_28
REMARK   18  A    between atoms: C_36  and  N_37
REMARK                            x       y       z     vdW  Elec       q    Type
REMARK                         _______ _______ _______ _____ _____    ______ ____
ROOT
ATOM      1  N   UNL     1       0.262  13.810 -30.902  1.00  0.00    -0.297 NA
ENDROOT
BRANCH   1   3
ATOM      2  C   UNL     1       1.572  12.136 -29.670  1.00  0.00    +0.024 C 
ATOM      3  C   UNL     1       0.210  12.464 -30.294  1.00  0.00    +0.051 C 
ATOM      4  C   UNL     1      -0.917  12.197 -29.288  1.00  0.00    +0.024 C 
ENDBRANCH   1   3
BRANCH   1   5
ATOM      5  C   UNL     1       1.357  14.701 -30.496  1.00  0.00    +0.086 C 
BRANCH   5   6
ATOM      6  C   UNL     1       2.297  15.080 -31.646  1.00  0.00    +0.034 C 
BRANCH   6   7
ATOM      7  C   UNL     1       2.088  16.537 -32.054  1.00  0.00    +0.107 C 
BRANCH   7   8
ATOM      8  N   UNL     1       0.701  16.933 -31.919  1.00  0.00    -0.299 N 
ATOM      9  C   UNL     1       0.320  18.260 -31.931  1.00  0.00    +0.304 C 
ATOM     10  O   UNL     1       1.134  19.167 -32.049  1.00  0.00    -0.253 OA
ATOM     11  N   UNL     1      -1.044  18.385 -31.793  1.00  0.00    -0.269 N 
ATOM     12  H   UNL     1       0.003  16.210 -31.869  1.00  0.00    +0.150 HD
ATOM     13  H   UNL     1      -1.559  17.528 -31.688  1.00  0.00    +0.156 HD
BRANCH  11  14
ATOM     14  C   UNL     1      -1.805  19.572 -31.771  1.00  0.00    +0.035 A 
ATOM     15  C   UNL     1      -2.668  19.968 -32.788  1.00  0.00    +0.023 A 
ATOM     16  C   UNL     1      -3.392  21.166 -32.689  1.00  0.00    +0.006 A 
ATOM     17  C   UNL     1      -3.276  22.006 -31.571  1.00  0.00    -0.042 A 
ATOM     18  C   UNL     1      -2.401  21.590 -30.552  1.00  0.00    +0.006 A 
ATOM     19  C   UNL     1      -1.678  20.395 -30.650  1.00  0.00    +0.023 A 
BRANCH  17  20
ATOM     20  C   UNL     1      -4.057  23.323 -31.434  1.00  0.00    -0.013 C 
ATOM     21  C   UNL     1      -4.429  23.853 -32.836  1.00  0.00    +0.015 C 
ATOM     22  C   UNL     1      -3.186  24.371 -30.710  1.00  0.00    +0.015 C 
ATOM     23  C   UNL     1      -5.372  23.190 -30.634  1.00  0.00    +0.015 C 
ENDBRANCH  17  20
ENDBRANCH  11  14
ENDBRANCH   7   8
ENDBRANCH   6   7
ENDBRANCH   5   6
ENDBRANCH   1   5
BRANCH   1  24
ATOM     24  C   UNL     1      -1.052  14.495 -30.875  1.00  0.00    +0.119 C 
BRANCH  24  25
ATOM     25  C   UNL     1      -1.764  14.736 -32.223  1.00  0.00    +0.166 C 
ATOM     26  C   UNL     1      -3.255  15.007 -32.033  1.00  0.00    +0.177 C 
ATOM     27  C   UNL     1      -3.823  14.664 -33.403  1.00  0.00    +0.195 C 
ATOM     28  C   UNL     1      -2.870  13.567 -33.903  1.00  0.00    +0.252 C 
ATOM     29  O   UNL     1      -1.692  13.575 -33.073  1.00  0.00    -0.347 OA
BRANCH  28  30
ATOM     30  N   UNL     1      -3.376  12.205 -33.949  1.00  0.00    -0.302 N 
ATOM     31  C   UNL     1      -4.423  11.755 -33.173  1.00  0.00    +0.106 A 
ATOM     32  C   UNL     1      -4.640  10.439 -33.497  1.00  0.00    +0.048 A 
ATOM     33  C   UNL     1      -3.716  10.053 -34.497  1.00  0.00    +0.072 A 
ATOM     34  C   UNL     1      -2.942  11.181 -34.757  1.00  0.00    +0.149 A 
ATOM     35  N   UNL     1      -1.935  11.261 -35.643  1.00  0.00    -0.218 NA
ATOM     36  C   UNL     1      -1.744  10.102 -36.292  1.00  0.00    +0.225 A 
ATOM     37  N   UNL     1      -2.412   8.946 -36.137  1.00  0.00    -0.220 NA
ATOM     38  C   UNL     1      -3.414   8.899 -35.237  1.00  0.00    +0.130 A 
ATOM     39 BR   UNL     1      -5.957   9.338 -32.739  1.00  0.00    -0.048 Br
BRANCH  38  40
ATOM     40  N   UNL     1      -4.076   7.702 -35.108  1.00  0.00    -0.343 N 
ATOM     41  H   UNL     1      -3.521   6.862 -35.162  1.00  0.00    +0.144 HD
ATOM     42  H   UNL     1      -5.075   7.665 -34.986  1.00  0.00    +0.144 HD
ENDBRANCH  38  40
ENDBRANCH  28  30
BRANCH  27  43
ATOM     43  O   UNL     1      -3.726  15.851 -34.228  1.00  0.00    -0.385 OA
ATOM     44  H   UNL     1      -4.223  15.674 -35.048  1.00  0.00    +0.210 HD
ENDBRANCH  27  43
BRANCH  26  45
ATOM     45  O   UNL     1      -3.524  16.359 -31.671  1.00  0.00    -0.386 OA
ATOM     46  H   UNL     1      -3.316  16.886 -32.472  1.00  0.00    +0.210 HD
ENDBRANCH  26  45
ENDBRANCH  24  25
ENDBRANCH   1  24
TORSDOF 13
ENDMDL
MODEL 2
REMARK VINA RESULT:    -8.137      4.223      6.220
REMARK INTER + INTRA:         -15.635
REMARK INTER:                 -14.258
REMARK INTRA:                  -1.376
REMARK UNBOUND:                -2.027
REMARK  Name = 
REMARK  18 active torsions:
REMARK  status: ('A' for Active; 'I' for Inactive)
REMARK    1  A    between atoms: C_1  and  C_2
REMARK    2  A    between atoms: C_2  and  C_3
REMARK    3  A    between atoms: C_2  and  N_4
REMARK    4  A    between atoms: N_4  and  C_5
REMARK    5  A    between atoms: N_4  and  C_22
REMARK    6  A    between atoms: C_5  and  C_6
REMARK    7  A    between atoms: C_6  and  C_7
REMARK    8  A    between atoms: C_7  and  N_8
REMARK    9  A    between atoms: N_11  and  C_12
REMARK   10  A    between atoms: C_15  and  C_18
REMARK   11  A    between atoms: C_18  and  C_19
REMARK   12  A    between atoms: C_18  and  C_20
REMARK   13  A    between atoms: C_18  and  C_21
REMARK   14  A    between atoms: C_22  and  C_23
REMARK   15  A    between atoms: C_24  and  O_40
REMARK   16  A    between atoms: C_25  and  O_39
REMARK   17  A    between atoms: C_26  and  N_28
REMARK   18  A    between atoms: C_36  and  N_37
REMARK                            x       y       z     vdW  Elec       q    Type
REMARK                         _______ _______ _______ _____ _____    ______ ____
ROOT
ATOM      1  N   UNL     1      -3.574  12.024 -32.908  1.00  0.00    -0.297 NA
ENDROOT
BRANCH   1   3
ATOM      2  C   UNL     1      -3.827  11.647 -35.322  1.00  0.00    +0.024 C 
ATOM      3  C   UNL     1      -4.491  11.509 -33.947  1.00  0.00    +0.051 C 
ATOM      4  C   UNL     1      -5.033  10.087 -33.755  1.00  0.00    +0.024 C 
ENDBRANCH   1   3
BRANCH   1   5
ATOM      5  C   UNL     1      -2.391  12.773 -33.352  1.00  0.00    +0.086 C 
BRANCH   5   6
ATOM      6  C   UNL     1      -2.403  14.245 -32.925  1.00  0.00    +0.034 C 
BRANCH   6   7
ATOM      7  C   UNL     1      -3.185  15.091 -33.929  1.00  0.00    +0.107 C 
BRANCH   7   8
ATOM      8  N   UNL     1      -2.717  16.463 -33.946  1.00  0.00    -0.299 N 
ATOM      9  C   UNL     1      -3.029  17.349 -32.936  1.00  0.00    +0.304 C 
ATOM     10  O   UNL     1      -3.721  17.025 -31.980  1.00  0.00    -0.253 OA
ATOM     11  N   UNL     1      -2.468  18.585 -33.170  1.00  0.00    -0.269 N 
ATOM     12  H   UNL     1      -2.105  16.746 -34.694  1.00  0.00    +0.150 HD
ATOM     13  H   UNL     1      -1.942  18.678 -34.022  1.00  0.00    +0.156 HD
BRANCH  11  14
ATOM     14  C   UNL     1      -2.553  19.738 -32.364  1.00  0.00    +0.035 A 
ATOM     15  C   UNL     1      -3.418  20.801 -32.605  1.00  0.00    +0.023 A 
ATOM     16  C   UNL     1      -3.442  21.915 -31.752  1.00  0.00    +0.006 A 
ATOM     17  C   UNL     1      -2.602  22.002 -30.631  1.00  0.00    -0.042 A 
ATOM     18  C   UNL     1      -1.735  20.919 -30.402  1.00  0.00    +0.006 A 
ATOM     19  C   UNL     1      -1.710  19.807 -31.252  1.00  0.00    +0.023 A 
BRANCH  17  20
ATOM     20  C   UNL     1      -2.607  23.208 -29.678  1.00  0.00    -0.013 C 
ATOM     21  C   UNL     1      -3.373  24.380 -30.329  1.00  0.00    +0.015 C 
ATOM     22  C   UNL     1      -1.156  23.649 -29.390  1.00  0.00    +0.015 C 
ATOM     23  C   UNL     1      -3.278  22.926 -28.315  1.00  0.00    +0.015 C 
ENDBRANCH  17  20
ENDBRANCH  11  14
ENDBRANCH   7   8
ENDBRANCH   6   7
ENDBRANCH   5   6
ENDBRANCH   1   5
BRANCH   1  24
ATOM     24  C   UNL     1      -3.235  10.998 -31.893  1.00  0.00    +0.119 C 
BRANCH  24  25
ATOM     25  C   UNL     1      -2.865  11.484 -30.476  1.00  0.00    +0.166 C 
ATOM     26  C   UNL     1      -1.724  10.664 -29.878  1.00  0.00    +0.177 C 
ATOM     27  C   UNL     1      -1.898  10.906 -28.386  1.00  0.00    +0.195 C 
ATOM     28  C   UNL     1      -3.416  11.106 -28.248  1.00  0.00    +0.252 C 
ATOM     29  O   UNL     1      -3.966  11.331 -29.560  1.00  0.00    -0.347 OA
BRANCH  28  30
ATOM     30  N   UNL     1      -4.181  10.044 -27.617  1.00  0.00    -0.302 N 
ATOM     31  C   UNL     1      -5.026   9.200 -28.307  1.00  0.00    +0.106 A 
ATOM     32  C   UNL     1      -5.554   8.315 -27.400  1.00  0.00    +0.048 A 
ATOM     33  C   UNL     1      -5.030   8.602 -26.118  1.00  0.00    +0.072 A 
ATOM     34  C   UNL     1      -4.174   9.688 -26.289  1.00  0.00    +0.149 A 
ATOM     35  N   UNL     1      -3.464  10.293 -25.323  1.00  0.00    -0.218 NA
ATOM     36  C   UNL     1      -3.656   9.721 -24.125  1.00  0.00    +0.225 A 
ATOM     37  N   UNL     1      -4.449   8.679 -23.822  1.00  0.00    -0.220 NA
ATOM     38  C   UNL     1      -5.152   8.097 -24.814  1.00  0.00    +0.130 A 
ATOM     39 BR   UNL     1      -6.767   6.942 -27.807  1.00  0.00    -0.048 Br
BRANCH  38  40
ATOM     40  N   UNL     1      -5.949   7.034 -24.468  1.00  0.00    -0.343 N 
ATOM     41  H   UNL     1      -5.657   6.478 -23.678  1.00  0.00    +0.144 HD
ATOM     42  H   UNL     1      -6.778   6.805 -24.993  1.00  0.00    +0.144 HD
ENDBRANCH  38  40
ENDBRANCH  28  30
BRANCH  27  43
ATOM     43  O   UNL     1      -1.181  12.120 -28.053  1.00  0.00    -0.385 OA
ATOM     44  H   UNL     1      -1.803  12.863 -28.172  1.00  0.00    +0.210 HD
ENDBRANCH  27  43
BRANCH  26  45
ATOM     45  O   UNL     1      -0.444  11.089 -30.339  1.00  0.00    -0.386 OA
ATOM     46  H   UNL     1       0.195  10.460 -29.942  1.00  0.00    +0.210 HD
ENDBRANCH  26  45
ENDBRANCH  24  25
ENDBRANCH   1  24
TORSDOF 13
ENDMDL
MODEL 3
REMARK VINA RESULT:    -8.093      3.936      7.933
REMARK INTER + INTRA:         -15.561
REMARK INTER:                 -13.017
REMARK INTRA:                  -2.544
REMARK UNBOUND:                -2.027
REMARK  Name = 
REMARK  18 active torsions:
REMARK  status: ('A' for Active; 'I' for Inactive)
REMARK    1  A    between atoms: C_1  and  C_2
REMARK    2  A    between atoms: C_2  and  C_3
REMARK    3  A    between atoms: C_2  and  N_4
REMARK    4  A    between atoms: N_4  and  C_5
REMARK    5  A    between atoms: N_4  and  C_22
REMARK    6  A    between atoms: C_5  and  C_6
REMARK    7  A    between atoms: C_6  and  C_7
REMARK    8  A    between atoms: C_7  and  N_8
REMARK    9  A    between atoms: N_11  and  C_12
REMARK   10  A    between atoms: C_15  and  C_18
REMARK   11  A    between atoms: C_18  and  C_19
REMARK   12  A    between atoms: C_18  and  C_20
REMARK   13  A    between atoms: C_18  and  C_21
REMARK   14  A    between atoms: C_22  and  C_23
REMARK   15  A    between atoms: C_24  and  O_40
REMARK   16  A    between atoms: C_25  and  O_39
REMARK   17  A    between atoms: C_26  and  N_28
REMARK   18  A    between atoms: C_36  and  N_37
REMARK                            x       y       z     vdW  Elec       q    Type
REMARK                         _______ _______ _______ _____ _____    ______ ____
ROOT
ATOM      1  N   UNL     1      -2.187  14.319 -31.496  1.00  0.00    -0.297 NA
ENDROOT
BRANCH   1   3
ATOM      2  C   UNL     1      -4.178  12.890 -31.341  1.00  0.00    +0.024 C 
ATOM      3  C   UNL     1      -2.952  13.260 -32.185  1.00  0.00    +0.051 C 
ATOM      4  C   UNL     1      -3.365  13.532 -33.637  1.00  0.00    +0.024 C 
ENDBRANCH   1   3
BRANCH   1   5
ATOM      5  C   UNL     1      -1.634  14.010 -30.170  1.00  0.00    +0.086 C 
BRANCH   5   6
ATOM      6  C   UNL     1      -0.337  13.195 -30.222  1.00  0.00    +0.034 C 
BRANCH   6   7
ATOM      7  C   UNL     1       0.852  14.095 -30.554  1.00  0.00    +0.107 C 
BRANCH   7   8
ATOM      8  N   UNL     1       0.756  15.373 -29.878  1.00  0.00    -0.299 N 
ATOM      9  C   UNL     1       1.579  16.431 -30.205  1.00  0.00    +0.304 C 
ATOM     10  O   UNL     1       2.435  16.342 -31.076  1.00  0.00    -0.253 OA
ATOM     11  N   UNL     1       1.297  17.536 -29.433  1.00  0.00    -0.269 N 
ATOM     12  H   UNL     1       0.030  15.494 -29.191  1.00  0.00    +0.150 HD
ATOM     13  H   UNL     1       0.569  17.423 -28.748  1.00  0.00    +0.156 HD
BRANCH  11  14
ATOM     14  C   UNL     1       1.913  18.803 -29.480  1.00  0.00    +0.035 A 
ATOM     15  C   UNL     1       3.259  19.030 -29.212  1.00  0.00    +0.023 A 
ATOM     16  C   UNL     1       3.797  20.324 -29.283  1.00  0.00    +0.006 A 
ATOM     17  C   UNL     1       3.006  21.432 -29.624  1.00  0.00    -0.042 A 
ATOM     18  C   UNL     1       1.648  21.185 -29.893  1.00  0.00    +0.006 A 
ATOM     19  C   UNL     1       1.111  19.894 -29.823  1.00  0.00    +0.023 A 
BRANCH  17  20
ATOM     20  C   UNL     1       3.567  22.861 -29.711  1.00  0.00    -0.013 C 
ATOM     21  C   UNL     1       2.406  23.864 -29.886  1.00  0.00    +0.015 C 
ATOM     22  C   UNL     1       4.521  22.973 -30.919  1.00  0.00    +0.015 C 
ATOM     23  C   UNL     1       4.362  23.298 -28.459  1.00  0.00    +0.015 C 
ENDBRANCH  17  20
ENDBRANCH  11  14
ENDBRANCH   7   8
ENDBRANCH   6   7
ENDBRANCH   5   6
ENDBRANCH   1   5
BRANCH   1  24
ATOM     24  C   UNL     1      -2.883  15.627 -31.518  1.00  0.00    +0.119 C 
BRANCH  24  25
ATOM     25  C   UNL     1      -2.451  16.653 -32.586  1.00  0.00    +0.166 C 
ATOM     26  C   UNL     1      -1.040  17.178 -32.327  1.00  0.00    +0.177 C 
ATOM     27  C   UNL     1      -1.039  18.495 -33.091  1.00  0.00    +0.195 C 
ATOM     28  C   UNL     1      -2.507  18.941 -33.004  1.00  0.00    +0.252 C 
ATOM     29  O   UNL     1      -3.300  17.817 -32.575  1.00  0.00    -0.347 OA
BRANCH  28  30
ATOM     30  N   UNL     1      -2.818  20.066 -32.138  1.00  0.00    -0.302 N 
ATOM     31  C   UNL     1      -2.663  20.038 -30.768  1.00  0.00    +0.106 A 
ATOM     32  C   UNL     1      -3.027  21.271 -30.287  1.00  0.00    +0.048 A 
ATOM     33  C   UNL     1      -3.415  22.092 -31.373  1.00  0.00    +0.072 A 
ATOM     34  C   UNL     1      -3.272  21.308 -32.514  1.00  0.00    +0.149 A 
ATOM     35  N   UNL     1      -3.535  21.692 -33.774  1.00  0.00    -0.218 NA
ATOM     36  C   UNL     1      -3.960  22.964 -33.833  1.00  0.00    +0.225 A 
ATOM     37  N   UNL     1      -4.143  23.824 -32.817  1.00  0.00    -0.220 NA
ATOM     38  C   UNL     1      -3.873  23.405 -31.564  1.00  0.00    +0.130 A 
ATOM     39 BR   UNL     1      -3.003  21.782 -28.481  1.00  0.00    -0.048 Br
BRANCH  38  40
ATOM     40  N   UNL     1      -4.071  24.311 -30.551  1.00  0.00    -0.343 N 
ATOM     41  H   UNL     1      -3.428  25.087 -30.498  1.00  0.00    +0.144 HD
ATOM     42  H   UNL     1      -4.811  24.194 -29.879  1.00  0.00    +0.144 HD
ENDBRANCH  38  40
ENDBRANCH  28  30
BRANCH  27  43
ATOM     43  O   UNL     1      -0.664  18.205 -34.461  1.00  0.00    -0.385 OA
ATOM     44  H   UNL     1      -1.191  18.794 -35.033  1.00  0.00    +0.210 HD
ENDBRANCH  27  43
BRANCH  26  45
ATOM     45  O   UNL     1      -0.031  16.290 -32.798  1.00  0.00    -0.386 OA
ATOM     46  H   UNL     1      -0.451  15.786 -33.527  1.00  0.00    +0.210 HD
ENDBRANCH  26  45
ENDBRANCH  24  25
ENDBRANCH   1  24
TORSDOF 13
ENDMDL
MODEL 4
REMARK VINA RESULT:    -7.863      3.295     10.381
REMARK INTER + INTRA:         -15.176
REMARK INTER:                 -13.202
REMARK INTRA:                  -1.974
REMARK UNBOUND:                -2.027
REMARK  Name = 
REMARK  18 active torsions:
REMARK  status: ('A' for Active; 'I' for Inactive)
REMARK    1  A    between atoms: C_1  and  C_2
REMARK    2  A    between atoms: C_2  and  C_3
REMARK    3  A    between atoms: C_2  and  N_4
REMARK    4  A    between atoms: N_4  and  C_5
REMARK    5  A    between atoms: N_4  and  C_22
REMARK    6  A    between atoms: C_5  and  C_6
REMARK    7  A    between atoms: C_6  and  C_7
REMARK    8  A    between atoms: C_7  and  N_8
REMARK    9  A    between atoms: N_11  and  C_12
REMARK   10  A    between atoms: C_15  and  C_18
REMARK   11  A    between atoms: C_18  and  C_19
REMARK   12  A    between atoms: C_18  and  C_20
REMARK   13  A    between atoms: C_18  and  C_21
REMARK   14  A    between atoms: C_22  and  C_23
REMARK   15  A    between atoms: C_24  and  O_40
REMARK   16  A    between atoms: C_25  and  O_39
REMARK   17  A    between atoms: C_26  and  N_28
REMARK   18  A    between atoms: C_36  and  N_37
REMARK                            x       y       z     vdW  Elec       q    Type
REMARK                         _______ _______ _______ _____ _____    ______ ____
ROOT
ATOM      1  N   UNL     1      -4.531  10.698 -30.515  1.00  0.00    -0.297 NA
ENDROOT
BRANCH   1   3
ATOM      2  C   UNL     1      -3.943   9.071 -28.771  1.00  0.00    +0.024 C 
ATOM      3  C   UNL     1      -4.036  10.559 -29.130  1.00  0.00    +0.051 C 
ATOM      4  C   UNL     1      -2.724  11.275 -28.784  1.00  0.00    +0.024 C 
ENDBRANCH   1   3
BRANCH   1   5
ATOM      5  C   UNL     1      -5.012   9.487 -31.193  1.00  0.00    +0.086 C 
BRANCH   5   6
ATOM      6  C   UNL     1      -6.079   9.764 -32.258  1.00  0.00    +0.034 C 
BRANCH   6   7
ATOM      7  C   UNL     1      -6.234   8.565 -33.191  1.00  0.00    +0.107 C 
BRANCH   7   8
ATOM      8  N   UNL     1      -4.948   8.087 -33.660  1.00  0.00    -0.299 N 
ATOM      9  C   UNL     1      -4.397   8.532 -34.844  1.00  0.00    +0.304 C 
ATOM     10  O   UNL     1      -4.967   9.345 -35.560  1.00  0.00    -0.253 OA
ATOM     11  N   UNL     1      -3.174   7.941 -35.073  1.00  0.00    -0.269 N 
ATOM     12  H   UNL     1      -4.433   7.455 -33.069  1.00  0.00    +0.150 HD
ATOM     13  H   UNL     1      -2.866   7.278 -34.383  1.00  0.00    +0.156 HD
BRANCH  11  14
ATOM     14  C   UNL     1      -2.306   8.149 -36.164  1.00  0.00    +0.035 A 
ATOM     15  C   UNL     1      -1.447   9.237 -36.287  1.00  0.00    +0.023 A 
ATOM     16  C   UNL     1      -0.611   9.370 -37.406  1.00  0.00    +0.006 A 
ATOM     17  C   UNL     1      -0.607   8.419 -38.438  1.00  0.00    -0.042 A 
ATOM     18  C   UNL     1      -1.480   7.325 -38.298  1.00  0.00    +0.006 A 
ATOM     19  C   UNL     1      -2.314   7.192 -37.181  1.00  0.00    +0.023 A 
BRANCH  17  20
ATOM     20  C   UNL     1       0.298   8.537 -39.676  1.00  0.00    -0.013 C 
ATOM     21  C   UNL     1       1.229   9.759 -39.522  1.00  0.00    +0.015 C 
ATOM     22  C   UNL     1      -0.570   8.717 -40.939  1.00  0.00    +0.015 C 
ATOM     23  C   UNL     1       1.199   7.304 -39.912  1.00  0.00    +0.015 C 
ENDBRANCH  17  20
ENDBRANCH  11  14
ENDBRANCH   7   8
ENDBRANCH   6   7
ENDBRANCH   5   6
ENDBRANCH   1   5
BRANCH   1  24
ATOM     24  C   UNL     1      -3.612  11.488 -31.369  1.00  0.00    +0.119 C 
BRANCH  24  25
ATOM     25  C   UNL     1      -4.131  12.825 -31.937  1.00  0.00    +0.166 C 
ATOM     26  C   UNL     1      -3.834  12.958 -33.429  1.00  0.00    +0.177 C 
ATOM     27  C   UNL     1      -3.898  14.464 -33.640  1.00  0.00    +0.195 C 
ATOM     28  C   UNL     1      -3.436  15.018 -32.283  1.00  0.00    +0.252 C 
ATOM     29  O   UNL     1      -3.480  13.951 -31.317  1.00  0.00    -0.347 OA
BRANCH  28  30
ATOM     30  N   UNL     1      -2.117  15.627 -32.219  1.00  0.00    -0.302 N 
ATOM     31  C   UNL     1      -0.958  14.913 -31.999  1.00  0.00    +0.106 A 
ATOM     32  C   UNL     1       0.086  15.804 -32.027  1.00  0.00    +0.048 A 
ATOM     33  C   UNL     1      -0.423  17.101 -32.273  1.00  0.00    +0.072 A 
ATOM     34  C   UNL     1      -1.803  16.954 -32.388  1.00  0.00    +0.149 A 
ATOM     35  N   UNL     1      -2.685  17.940 -32.621  1.00  0.00    -0.218 NA
ATOM     36  C   UNL     1      -2.083  19.133 -32.748  1.00  0.00    +0.225 A 
ATOM     37  N   UNL     1      -0.772  19.413 -32.657  1.00  0.00    -0.220 NA
ATOM     38  C   UNL     1       0.086  18.401 -32.418  1.00  0.00    +0.130 A 
ATOM     39 BR   UNL     1       1.894  15.362 -31.787  1.00  0.00    -0.048 Br
BRANCH  38  40
ATOM     40  N   UNL     1       1.419  18.724 -32.334  1.00  0.00    -0.343 N 
ATOM     41  H   UNL     1       2.015  18.084 -31.831  1.00  0.00    +0.144 HD
ATOM     42  H   UNL     1       1.780  19.572 -32.738  1.00  0.00    +0.144 HD
ENDBRANCH  38  40
ENDBRANCH  28  30
BRANCH  27  43
ATOM     43  O   UNL     1      -5.281  14.811 -33.898  1.00  0.00    -0.385 OA
ATOM     44  H   UNL     1      -5.615  15.273 -33.106  1.00  0.00    +0.210 HD
ENDBRANCH  27  43
BRANCH  26  45
ATOM     45  O   UNL     1      -4.781  12.268 -34.239  1.00  0.00    -0.386 OA
ATOM     46  H   UNL     1      -5.189  12.958 -34.803  1.00  0.00    +0.210 HD
ENDBRANCH  26  45
ENDBRANCH  24  25
ENDBRANCH   1  24
TORSDOF 13
ENDMDL
MODEL 5
REMARK VINA RESULT:    -7.851      2.206      3.269
REMARK INTER + INTRA:         -15.156
REMARK INTER:                 -13.836
REMARK INTRA:                  -1.320
REMARK UNBOUND:                -2.027
REMARK  Name = 
REMARK  18 active torsions:
REMARK  status: ('A' for Active; 'I' for Inactive)
REMARK    1  A    between atoms: C_1  and  C_2
REMARK    2  A    between atoms: C_2  and  C_3
REMARK    3  A    between atoms: C_2  and  N_4
REMARK    4  A    between atoms: N_4  and  C_5
REMARK    5  A    between atoms: N_4  and  C_22
REMARK    6  A    between atoms: C_5  and  C_6
REMARK    7  A    between atoms: C_6  and  C_7
REMARK    8  A    between atoms: C_7  and  N_8
REMARK    9  A    between atoms: N_11  and  C_12
REMARK   10  A    between atoms: C_15  and  C_18
REMARK   11  A    between atoms: C_18  and  C_19
REMARK   12  A    between atoms: C_18  and  C_20
REMARK   13  A    between atoms: C_18  and  C_21
REMARK   14  A    between atoms: C_22  and  C_23
REMARK   15  A    between atoms: C_24  and  O_40
REMARK   16  A    between atoms: C_25  and  O_39
REMARK   17  A    between atoms: C_26  and  N_28
REMARK   18  A    between atoms: C_36  and  N_37
REMARK                            x       y       z     vdW  Elec       q    Type
REMARK                         _______ _______ _______ _____ _____    ______ ____
ROOT
ATOM      1  N   UNL     1      -0.955  14.793 -32.473  1.00  0.00    -0.297 NA
ENDROOT
BRANCH   1   3
ATOM      2  C   UNL     1       1.380  14.663 -31.721  1.00  0.00    +0.024 C 
ATOM      3  C   UNL     1      -0.026  14.067 -31.583  1.00  0.00    +0.051 C 
ATOM      4  C   UNL     1      -0.419  13.961 -30.104  1.00  0.00    +0.024 C 
ENDBRANCH   1   3
BRANCH   1   5
ATOM      5  C   UNL     1      -0.993  16.258 -32.373  1.00  0.00    +0.086 C 
BRANCH   5   6
ATOM      6  C   UNL     1      -1.805  16.927 -33.487  1.00  0.00    +0.034 C 
BRANCH   6   7
ATOM      7  C   UNL     1      -3.039  17.621 -32.913  1.00  0.00    +0.107 C 
BRANCH   7   8
ATOM      8  N   UNL     1      -2.728  18.328 -31.687  1.00  0.00    -0.299 N 
ATOM      9  C   UNL     1      -2.373  19.662 -31.688  1.00  0.00    +0.304 C 
ATOM     10  O   UNL     1      -2.296  20.311 -32.723  1.00  0.00    -0.253 OA
ATOM     11  N   UNL     1      -2.132  20.111 -30.409  1.00  0.00    -0.269 N 
ATOM     12  H   UNL     1      -2.830  17.835 -30.815  1.00  0.00    +0.150 HD
ATOM     13  H   UNL     1      -2.225  19.430 -29.675  1.00  0.00    +0.156 HD
BRANCH  11  14
ATOM     14  C   UNL     1      -1.759  21.409 -30.005  1.00  0.00    +0.035 A 
ATOM     15  C   UNL     1      -2.631  22.493 -29.950  1.00  0.00    +0.023 A 
ATOM     16  C   UNL     1      -2.181  23.756 -29.535  1.00  0.00    +0.006 A 
ATOM     17  C   UNL     1      -0.846  23.975 -29.162  1.00  0.00    -0.042 A 
ATOM     18  C   UNL     1       0.021  22.870 -29.223  1.00  0.00    +0.006 A 
ATOM     19  C   UNL     1      -0.427  21.610 -29.637  1.00  0.00    +0.023 A 
BRANCH  17  20
ATOM     20  C   UNL     1      -0.325  25.347 -28.703  1.00  0.00    -0.013 C 
ATOM     21  C   UNL     1      -0.232  25.376 -27.162  1.00  0.00    +0.015 C 
ATOM     22  C   UNL     1      -1.291  26.455 -29.174  1.00  0.00    +0.015 C 
ATOM     23  C   UNL     1       1.076  25.699 -29.251  1.00  0.00    +0.015 C 
ENDBRANCH  17  20
ENDBRANCH  11  14
ENDBRANCH   7   8
ENDBRANCH   6   7
ENDBRANCH   5   6
ENDBRANCH   1   5
BRANCH   1  24
ATOM     24  C   UNL     1      -2.313  14.199 -32.480  1.00  0.00    +0.119 C 
BRANCH  24  25
ATOM     25  C   UNL     1      -2.928  13.829 -33.846  1.00  0.00    +0.166 C 
ATOM     26  C   UNL     1      -4.434  13.593 -33.741  1.00  0.00    +0.177 C 
ATOM     27  C   UNL     1      -4.714  12.741 -34.972  1.00  0.00    +0.195 C 
ATOM     28  C   UNL     1      -3.400  11.966 -35.157  1.00  0.00    +0.252 C 
ATOM     29  O   UNL     1      -2.383  12.598 -34.356  1.00  0.00    -0.347 OA
BRANCH  28  30
ATOM     30  N   UNL     1      -3.404  10.548 -34.840  1.00  0.00    -0.302 N 
ATOM     31  C   UNL     1      -4.019  10.018 -33.724  1.00  0.00    +0.106 A 
ATOM     32  C   UNL     1      -3.842   8.658 -33.764  1.00  0.00    +0.048 A 
ATOM     33  C   UNL     1      -3.107   8.323 -34.925  1.00  0.00    +0.072 A 
ATOM     34  C   UNL     1      -2.851   9.527 -35.576  1.00  0.00    +0.149 A 
ATOM     35  N   UNL     1      -2.173   9.675 -36.726  1.00  0.00    -0.218 NA
ATOM     36  C   UNL     1      -1.755   8.498 -37.218  1.00  0.00    +0.225 A 
ATOM     37  N   UNL     1      -1.930   7.273 -36.694  1.00  0.00    -0.220 NA
ATOM     38  C   UNL     1      -2.612   7.160 -35.537  1.00  0.00    +0.130 A 
ATOM     39 BR   UNL     1      -4.482   7.444 -32.484  1.00  0.00    -0.048 Br
BRANCH  38  40
ATOM     40  N   UNL     1      -2.774   5.893 -35.033  1.00  0.00    -0.343 N 
ATOM     41  H   UNL     1      -3.714   5.603 -34.812  1.00  0.00    +0.144 HD
ATOM     42  H   UNL     1      -1.985   5.287 -34.870  1.00  0.00    +0.144 HD
ENDBRANCH  38  40
ENDBRANCH  28  30
BRANCH  27  43
ATOM     43  O   UNL     1      -4.947  13.642 -36.083  1.00  0.00    -0.385 OA
ATOM     44  H   UNL     1      -4.394  14.432 -35.934  1.00  0.00    +0.210 HD
ENDBRANCH  27  43
BRANCH  26  45
ATOM     45  O   UNL     1      -5.181  14.806 -33.754  1.00  0.00    -0.386 OA
ATOM     46  H   UNL     1      -4.831  15.331 -33.004  1.00  0.00    +0.210 HD
ENDBRANCH  26  45
ENDBRANCH  24  25
ENDBRANCH   1  24
TORSDOF 13
ENDMDL
MODEL 6
REMARK VINA RESULT:    -7.739      2.825      4.373
REMARK INTER + INTRA:         -14.969
REMARK INTER:                 -13.693
REMARK INTRA:                  -1.276
REMARK UNBOUND:                -2.027
REMARK  Name = 
REMARK  18 active torsions:
REMARK  status: ('A' for Active; 'I' for Inactive)
REMARK    1  A    between atoms: C_1  and  C_2
REMARK    2  A    between atoms: C_2  and  C_3
REMARK    3  A    between atoms: C_2  and  N_4
REMARK    4  A    between atoms: N_4  and  C_5
REMARK    5  A    between atoms: N_4  and  C_22
REMARK    6  A    between atoms: C_5  and  C_6
REMARK    7  A    between atoms: C_6  and  C_7
REMARK    8  A    between atoms: C_7  and  N_8
REMARK    9  A    between atoms: N_11  and  C_12
REMARK   10  A    between atoms: C_15  and  C_18
REMARK   11  A    between atoms: C_18  and  C_19
REMARK   12  A    between atoms: C_18  and  C_20
REMARK   13  A    between atoms: C_18  and  C_21
REMARK   14  A    between atoms: C_22  and  C_23
REMARK   15  A    between atoms: C_24  and  O_40
REMARK   16  A    between atoms: C_25  and  O_39
REMARK   17  A    between atoms: C_26  and  N_28
REMARK   18  A    between atoms: C_36  and  N_37
REMARK                            x       y       z     vdW  Elec       q    Type
REMARK                         _______ _______ _______ _____ _____    ______ ____
ROOT
ATOM      1  N   UNL     1      -2.963  11.904 -32.221  1.00  0.00    -0.297 NA
ENDROOT
BRANCH   1   3
ATOM      2  C   UNL     1      -3.610  11.920 -29.852  1.00  0.00    +0.024 C 
ATOM      3  C   UNL     1      -2.490  12.216 -30.856  1.00  0.00    +0.051 C 
ATOM      4  C   UNL     1      -1.180  11.557 -30.406  1.00  0.00    +0.024 C 
ENDBRANCH   1   3
BRANCH   1   5
ATOM      5  C   UNL     1      -2.353  12.636 -33.339  1.00  0.00    +0.086 C 
BRANCH   5   6
ATOM      6  C   UNL     1      -2.190  14.136 -33.073  1.00  0.00    +0.034 C 
BRANCH   6   7
ATOM      7  C   UNL     1      -3.210  14.940 -33.877  1.00  0.00    +0.107 C 
BRANCH   7   8
ATOM      8  N   UNL     1      -2.861  16.346 -33.924  1.00  0.00    -0.299 N 
ATOM      9  C   UNL     1      -3.070  17.183 -32.846  1.00  0.00    +0.304 C 
ATOM     10  O   UNL     1      -3.566  16.782 -31.801  1.00  0.00    -0.253 OA
ATOM     11  N   UNL     1      -2.655  18.465 -33.127  1.00  0.00    -0.269 N 
ATOM     12  H   UNL     1      -2.406  16.695 -34.752  1.00  0.00    +0.150 HD
ATOM     13  H   UNL     1      -2.287  18.620 -34.050  1.00  0.00    +0.156 HD
BRANCH  11  14
ATOM     14  C   UNL     1      -2.695  19.591 -32.279  1.00  0.00    +0.035 A 
ATOM     15  C   UNL     1      -2.154  19.625 -30.997  1.00  0.00    +0.023 A 
ATOM     16  C   UNL     1      -2.234  20.788 -30.216  1.00  0.00    +0.006 A 
ATOM     17  C   UNL     1      -2.856  21.953 -30.690  1.00  0.00    -0.042 A 
ATOM     18  C   UNL     1      -3.395  21.901 -31.988  1.00  0.00    +0.006 A 
ATOM     19  C   UNL     1      -3.317  20.741 -32.769  1.00  0.00    +0.023 A 
BRANCH  17  20
ATOM     20  C   UNL     1      -2.957  23.242 -29.858  1.00  0.00    -0.013 C 
ATOM     21  C   UNL     1      -3.964  24.208 -30.519  1.00  0.00    +0.015 C 
ATOM     22  C   UNL     1      -1.574  23.922 -29.783  1.00  0.00    +0.015 C 
ATOM     23  C   UNL     1      -3.432  23.012 -28.405  1.00  0.00    +0.015 C 
ENDBRANCH  17  20
ENDBRANCH  11  14
ENDBRANCH   7   8
ENDBRANCH   6   7
ENDBRANCH   5   6
ENDBRANCH   1   5
BRANCH   1  24
ATOM     24  C   UNL     1      -4.442  11.876 -32.315  1.00  0.00    +0.119 C 
BRANCH  24  25
ATOM     25  C   UNL     1      -5.096  10.641 -32.969  1.00  0.00    +0.166 C 
ATOM     26  C   UNL     1      -5.182   9.466 -31.997  1.00  0.00    +0.177 C 
ATOM     27  C   UNL     1      -5.308   8.276 -32.938  1.00  0.00    +0.195 C 
ATOM     28  C   UNL     1      -4.526   8.737 -34.178  1.00  0.00    +0.252 C 
ATOM     29  O   UNL     1      -4.320  10.159 -34.083  1.00  0.00    -0.347 OA
BRANCH  28  30
ATOM     30  N   UNL     1      -3.238   8.113 -34.432  1.00  0.00    -0.302 N 
ATOM     31  C   UNL     1      -2.164   8.205 -33.571  1.00  0.00    +0.106 A 
ATOM     32  C   UNL     1      -1.135   7.479 -34.118  1.00  0.00    +0.048 A 
ATOM     33  C   UNL     1      -1.569   6.917 -35.342  1.00  0.00    +0.072 A 
ATOM     34  C   UNL     1      -2.888   7.332 -35.507  1.00  0.00    +0.149 A 
ATOM     35  N   UNL     1      -3.687   7.029 -36.543  1.00  0.00    -0.218 NA
ATOM     36  C   UNL     1      -3.070   6.243 -37.440  1.00  0.00    +0.225 A 
ATOM     37  N   UNL     1      -1.811   5.776 -37.405  1.00  0.00    -0.220 NA
ATOM     38  C   UNL     1      -1.034   6.103 -36.353  1.00  0.00    +0.130 A 
ATOM     39 BR   UNL     1       0.565   7.265 -33.355  1.00  0.00    -0.048 Br
BRANCH  38  40
ATOM     40  N   UNL     1       0.247   5.606 -36.350  1.00  0.00    -0.343 N 
ATOM     41  H   UNL     1       0.996   6.268 -36.482  1.00  0.00    +0.144 HD
ATOM     42  H   UNL     1       0.428   4.622 -36.242  1.00  0.00    +0.144 HD
ENDBRANCH  38  40
ENDBRANCH  28  30
BRANCH  27  43
ATOM     43  O   UNL     1      -6.715   8.107 -33.244  1.00  0.00    -0.385 OA
ATOM     44  H   UNL     1      -7.066   7.439 -32.626  1.00  0.00    +0.210 HD
ENDBRANCH  27  43
BRANCH  26  45
ATOM     45  O   UNL     1      -6.296   9.565 -31.115  1.00  0.00    -0.386 OA
ATOM     46  H   UNL     1      -5.976   9.217 -30.255  1.00  0.00    +0.210 HD
ENDBRANCH  26  45
ENDBRANCH  24  25
ENDBRANCH   1  24
TORSDOF 13
ENDMDL
MODEL 7
REMARK VINA RESULT:    -7.535      3.318      5.343
REMARK INTER + INTRA:         -14.628
REMARK INTER:                 -13.417
REMARK INTRA:                  -1.211
REMARK UNBOUND:                -2.027
REMARK  Name = 
REMARK  18 active torsions:
REMARK  status: ('A' for Active; 'I' for Inactive)
REMARK    1  A    between atoms: C_1  and  C_2
REMARK    2  A    between atoms: C_2  and  C_3
REMARK    3  A    between atoms: C_2  and  N_4
REMARK    4  A    between atoms: N_4  and  C_5
REMARK    5  A    between atoms: N_4  and  C_22
REMARK    6  A    between atoms: C_5  and  C_6
REMARK    7  A    between atoms: C_6  and  C_7
REMARK    8  A    between atoms: C_7  and  N_8
REMARK    9  A    between atoms: N_11  and  C_12
REMARK   10  A    between atoms: C_15  and  C_18
REMARK   11  A    between atoms: C_18  and  C_19
REMARK   12  A    between atoms: C_18  and  C_20
REMARK   13  A    between atoms: C_18  and  C_21
REMARK   14  A    between atoms: C_22  and  C_23
REMARK   15  A    between atoms: C_24  and  O_40
REMARK   16  A    between atoms: C_25  and  O_39
REMARK   17  A    between atoms: C_26  and  N_28
REMARK   18  A    between atoms: C_36  and  N_37
REMARK                            x       y       z     vdW  Elec       q    Type
REMARK                         _______ _______ _______ _____ _____    ______ ____
ROOT
ATOM      1  N   UNL     1      -3.386  12.168 -33.045  1.00  0.00    -0.297 NA
ENDROOT
BRANCH   1   3
ATOM      2  C   UNL     1      -4.144  12.908 -30.829  1.00  0.00    +0.024 C 
ATOM      3  C   UNL     1      -3.918  11.701 -31.747  1.00  0.00    +0.051 C 
ATOM      4  C   UNL     1      -5.170  10.817 -31.785  1.00  0.00    +0.024 C 
ENDBRANCH   1   3
BRANCH   1   5
ATOM      5  C   UNL     1      -4.342  12.710 -34.019  1.00  0.00    +0.086 C 
BRANCH   5   6
ATOM      6  C   UNL     1      -4.285  14.236 -34.148  1.00  0.00    +0.034 C 
BRANCH   6   7
ATOM      7  C   UNL     1      -2.921  14.764 -33.709  1.00  0.00    +0.107 C 
BRANCH   7   8
ATOM      8  N   UNL     1      -2.824  16.199 -33.886  1.00  0.00    -0.299 N 
ATOM      9  C   UNL     1      -2.937  17.071 -32.821  1.00  0.00    +0.304 C 
ATOM     10  O   UNL     1      -3.130  16.677 -31.679  1.00  0.00    -0.253 OA
ATOM     11  N   UNL     1      -2.806  18.378 -33.235  1.00  0.00    -0.269 N 
ATOM     12  H   UNL     1      -2.616  16.552 -34.806  1.00  0.00    +0.150 HD
ATOM     13  H   UNL     1      -2.669  18.518 -34.222  1.00  0.00    +0.156 HD
BRANCH  11  14
ATOM     14  C   UNL     1      -2.851  19.543 -32.443  1.00  0.00    +0.035 A 
ATOM     15  C   UNL     1      -3.515  20.711 -32.805  1.00  0.00    +0.023 A 
ATOM     16  C   UNL     1      -3.514  21.830 -31.958  1.00  0.00    +0.006 A 
ATOM     17  C   UNL     1      -2.848  21.816 -30.722  1.00  0.00    -0.042 A 
ATOM     18  C   UNL     1      -2.183  20.628 -30.372  1.00  0.00    +0.006 A 
ATOM     19  C   UNL     1      -2.184  19.511 -31.217  1.00  0.00    +0.023 A 
BRANCH  17  20
ATOM     20  C   UNL     1      -2.830  23.025 -29.772  1.00  0.00    -0.013 C 
ATOM     21  C   UNL     1      -1.375  23.341 -29.363  1.00  0.00    +0.015 C 
ATOM     22  C   UNL     1      -3.655  22.706 -28.508  1.00  0.00    +0.015 C 
ATOM     23  C   UNL     1      -3.420  24.314 -30.389  1.00  0.00    +0.015 C 
ENDBRANCH  17  20
ENDBRANCH  11  14
ENDBRANCH   7   8
ENDBRANCH   6   7
ENDBRANCH   5   6
ENDBRANCH   1   5
BRANCH   1  24
ATOM     24  C   UNL     1      -2.457  11.190 -33.660  1.00  0.00    +0.119 C 
BRANCH  24  25
ATOM     25  C   UNL     1      -3.020  10.249 -34.745  1.00  0.00    +0.166 C 
ATOM     26  C   UNL     1      -2.683   8.787 -34.455  1.00  0.00    +0.177 C 
ATOM     27  C   UNL     1      -2.812   8.146 -35.830  1.00  0.00    +0.195 C 
ATOM     28  C   UNL     1      -2.419   9.290 -36.778  1.00  0.00    +0.252 C 
ATOM     29  O   UNL     1      -2.443  10.525 -36.036  1.00  0.00    -0.347 OA
BRANCH  28  30
ATOM     30  N   UNL     1      -1.133   9.196 -37.449  1.00  0.00    -0.302 N 
ATOM     31  C   UNL     1       0.072   9.444 -36.826  1.00  0.00    +0.106 A 
ATOM     32  C   UNL     1       1.064   9.236 -37.752  1.00  0.00    +0.048 A 
ATOM     33  C   UNL     1       0.475   8.846 -38.978  1.00  0.00    +0.072 A 
ATOM     34  C   UNL     1      -0.899   8.830 -38.754  1.00  0.00    +0.149 A 
ATOM     35  N   UNL     1      -1.843   8.517 -39.657  1.00  0.00    -0.218 NA
ATOM     36  C   UNL     1      -1.313   8.196 -40.847  1.00  0.00    +0.225 A 
ATOM     37  N   UNL     1      -0.015   8.173 -41.197  1.00  0.00    -0.220 NA
ATOM     38  C   UNL     1       0.906   8.497 -40.268  1.00  0.00    +0.130 A 
ATOM     39 BR   UNL     1       2.903   9.430 -37.432  1.00  0.00    -0.048 Br
BRANCH  38  40
ATOM     40  N   UNL     1       2.222   8.460 -40.660  1.00  0.00    -0.343 N 
ATOM     41  H   UNL     1       2.788   7.707 -40.299  1.00  0.00    +0.144 HD
ATOM     42  H   UNL     1       2.610   9.167 -41.264  1.00  0.00    +0.144 HD
ENDBRANCH  38  40
ENDBRANCH  28  30
BRANCH  27  43
ATOM     43  O   UNL     1      -4.201   7.775 -36.011  1.00  0.00    -0.385 OA
ATOM     44  H   UNL     1      -4.683   8.584 -36.266  1.00  0.00    +0.210 HD
ENDBRANCH  27  43
BRANCH  26  45
ATOM     45  O   UNL     1      -3.571   8.198 -33.509  1.00  0.00    -0.386 OA
ATOM     46  H   UNL     1      -3.116   7.386 -33.199  1.00  0.00    +0.210 HD
ENDBRANCH  26  45
ENDBRANCH  24  25
ENDBRANCH   1  24
TORSDOF 13
ENDMDL
MODEL 8
REMARK VINA RESULT:    -7.475      3.284      4.749
REMARK INTER + INTRA:         -14.527
REMARK INTER:                 -13.021
REMARK INTRA:                  -1.506
REMARK UNBOUND:                -2.027
REMARK  Name = 
REMARK  18 active torsions:
REMARK  status: ('A' for Active; 'I' for Inactive)
REMARK    1  A    between atoms: C_1  and  C_2
REMARK    2  A    between atoms: C_2  and  C_3
REMARK    3  A    between atoms: C_2  and  N_4
REMARK    4  A    between atoms: N_4  and  C_5
REMARK    5  A    between atoms: N_4  and  C_22
REMARK    6  A    between atoms: C_5  and  C_6
REMARK    7  A    between atoms: C_6  and  C_7
REMARK    8  A    between atoms: C_7  and  N_8
REMARK    9  A    between atoms: N_11  and  C_12
REMARK   10  A    between atoms: C_15  and  C_18
REMARK   11  A    between atoms: C_18  and  C_19
REMARK   12  A    between atoms: C_18  and  C_20
REMARK   13  A    between atoms: C_18  and  C_21
REMARK   14  A    between atoms: C_22  and  C_23
REMARK   15  A    between atoms: C_24  and  O_40
REMARK   16  A    between atoms: C_25  and  O_39
REMARK   17  A    between atoms: C_26  and  N_28
REMARK   18  A    between atoms: C_36  and  N_37
REMARK                            x       y       z     vdW  Elec       q    Type
REMARK                         _______ _______ _______ _____ _____    ______ ____
ROOT
ATOM      1  N   UNL     1      -0.234  16.882 -32.750  1.00  0.00    -0.297 NA
ENDROOT
BRANCH   1   3
ATOM      2  C   UNL     1       1.552  15.486 -31.805  1.00  0.00    +0.024 C 
ATOM      3  C   UNL     1       0.940  16.891 -31.853  1.00  0.00    +0.051 C 
ATOM      4  C   UNL     1       2.025  17.937 -32.137  1.00  0.00    +0.024 C 
ENDBRANCH   1   3
BRANCH   1   5
ATOM      5  C   UNL     1      -0.680  18.167 -33.305  1.00  0.00    +0.086 C 
BRANCH   5   6
ATOM      6  C   UNL     1      -1.772  18.847 -32.472  1.00  0.00    +0.034 C 
BRANCH   6   7
ATOM      7  C   UNL     1      -1.154  19.739 -31.397  1.00  0.00    +0.107 C 
BRANCH   7   8
ATOM      8  N   UNL     1      -2.098  20.730 -30.921  1.00  0.00    -0.299 N 
ATOM      9  C   UNL     1      -1.808  21.556 -29.854  1.00  0.00    +0.304 C 
ATOM     10  O   UNL     1      -0.744  21.488 -29.253  1.00  0.00    -0.253 OA
ATOM     11  N   UNL     1      -2.853  22.415 -29.594  1.00  0.00    -0.269 N 
ATOM     12  H   UNL     1      -2.962  20.844 -31.426  1.00  0.00    +0.150 HD
ATOM     13  H   UNL     1      -3.663  22.317 -30.181  1.00  0.00    +0.156 HD
BRANCH  11  14
ATOM     14  C   UNL     1      -2.926  23.407 -28.596  1.00  0.00    +0.035 A 
ATOM     15  C   UNL     1      -2.691  24.761 -28.818  1.00  0.00    +0.023 A 
ATOM     16  C   UNL     1      -2.787  25.688 -27.769  1.00  0.00    +0.006 A 
ATOM     17  C   UNL     1      -3.119  25.291 -26.464  1.00  0.00    -0.042 A 
ATOM     18  C   UNL     1      -3.354  23.920 -26.257  1.00  0.00    +0.006 A 
ATOM     19  C   UNL     1      -3.260  22.995 -27.304  1.00  0.00    +0.023 A 
BRANCH  17  20
ATOM     20  C   UNL     1      -3.232  26.284 -25.295  1.00  0.00    -0.013 C 
ATOM     21  C   UNL     1      -3.199  27.729 -25.837  1.00  0.00    +0.015 C 
ATOM     22  C   UNL     1      -2.051  26.078 -24.323  1.00  0.00    +0.015 C 
ATOM     23  C   UNL     1      -4.532  26.135 -24.472  1.00  0.00    +0.015 C 
ENDBRANCH  17  20
ENDBRANCH  11  14
ENDBRANCH   7   8
ENDBRANCH   6   7
ENDBRANCH   5   6
ENDBRANCH   1   5
BRANCH   1  24
ATOM     24  C   UNL     1      -1.360  16.091 -32.200  1.00  0.00    +0.119 C 
BRANCH  24  25
ATOM     25  C   UNL     1      -2.045  15.072 -33.134  1.00  0.00    +0.166 C 
ATOM     26  C   UNL     1      -3.555  15.294 -33.203  1.00  0.00    +0.177 C 
ATOM     27  C   UNL     1      -4.062  13.937 -33.671  1.00  0.00    +0.195 C 
ATOM     28  C   UNL     1      -3.030  12.964 -33.077  1.00  0.00    +0.252 C 
ATOM     29  O   UNL     1      -1.879  13.723 -32.657  1.00  0.00    -0.347 OA
BRANCH  28  30
ATOM     30  N   UNL     1      -3.452  12.134 -31.961  1.00  0.00    -0.302 N 
ATOM     31  C   UNL     1      -3.044  12.341 -30.660  1.00  0.00    +0.106 A 
ATOM     32  C   UNL     1      -3.655  11.391 -29.881  1.00  0.00    +0.048 A 
ATOM     33  C   UNL     1      -4.465  10.573 -30.704  1.00  0.00    +0.072 A 
ATOM     34  C   UNL     1      -4.316  11.065 -31.998  1.00  0.00    +0.149 A 
ATOM     35  N   UNL     1      -4.909  10.580 -33.101  1.00  0.00    -0.218 NA
ATOM     36  C   UNL     1      -5.703   9.534 -32.825  1.00  0.00    +0.225 A 
ATOM     37  N   UNL     1      -5.933   8.960 -31.632  1.00  0.00    -0.220 NA
ATOM     38  C   UNL     1      -5.319   9.470 -30.545  1.00  0.00    +0.130 A 
ATOM     39 BR   UNL     1      -3.451  11.216 -28.024  1.00  0.00    -0.048 Br
BRANCH  38  40
ATOM     40  N   UNL     1      -5.579   8.860 -29.342  1.00  0.00    -0.343 N 
ATOM     41  H   UNL     1      -4.941   8.137 -29.046  1.00  0.00    +0.144 HD
ATOM     42  H   UNL     1      -6.385   9.108 -28.791  1.00  0.00    +0.144 HD
ENDBRANCH  38  40
ENDBRANCH  28  30
BRANCH  27  43
ATOM     43  O   UNL     1      -4.011  13.927 -35.119  1.00  0.00    -0.385 OA
ATOM     44  H   UNL     1      -4.151  13.005 -35.405  1.00  0.00    +0.210 HD
ENDBRANCH  27  43
BRANCH  26  45
ATOM     45  O   UNL     1      -3.914  16.335 -34.106  1.00  0.00    -0.386 OA
ATOM     46  H   UNL     1      -3.592  16.037 -34.984  1.00  0.00    +0.210 HD
ENDBRANCH  26  45
ENDBRANCH  24  25
ENDBRANCH   1  24
TORSDOF 13
ENDMDL
MODEL 9
REMARK VINA RESULT:    -7.472      3.763     10.159
REMARK INTER + INTRA:         -14.523
REMARK INTER:                 -12.749
REMARK INTRA:                  -1.774
REMARK UNBOUND:                -2.027
REMARK  Name = 
REMARK  18 active torsions:
REMARK  status: ('A' for Active; 'I' for Inactive)
REMARK    1  A    between atoms: C_1  and  C_2
REMARK    2  A    between atoms: C_2  and  C_3
REMARK    3  A    between atoms: C_2  and  N_4
REMARK    4  A    between atoms: N_4  and  C_5
REMARK    5  A    between atoms: N_4  and  C_22
REMARK    6  A    between atoms: C_5  and  C_6
REMARK    7  A    between atoms: C_6  and  C_7
REMARK    8  A    between atoms: C_7  and  N_8
REMARK    9  A    between atoms: N_11  and  C_12
REMARK   10  A    between atoms: C_15  and  C_18
REMARK   11  A    between atoms: C_18  and  C_19
REMARK   12  A    between atoms: C_18  and  C_20
REMARK   13  A    between atoms: C_18  and  C_21
REMARK   14  A    between atoms: C_22  and  C_23
REMARK   15  A    between atoms: C_24  and  O_40
REMARK   16  A    between atoms: C_25  and  O_39
REMARK   17  A    between atoms: C_26  and  N_28
REMARK   18  A    between atoms: C_36  and  N_37
REMARK                            x       y       z     vdW  Elec       q    Type
REMARK                         _______ _______ _______ _____ _____    ______ ____
ROOT
ATOM      1  N   UNL     1      -4.216  10.685 -30.827  1.00  0.00    -0.297 NA
ENDROOT
BRANCH   1   3
ATOM      2  C   UNL     1      -2.158  11.639 -29.883  1.00  0.00    +0.024 C 
ATOM      3  C   UNL     1      -3.300  10.638 -29.668  1.00  0.00    +0.051 C 
ATOM      4  C   UNL     1      -3.922  10.827 -28.279  1.00  0.00    +0.024 C 
ENDBRANCH   1   3
BRANCH   1   5
ATOM      5  C   UNL     1      -4.985   9.474 -31.139  1.00  0.00    +0.086 C 
BRANCH   5   6
ATOM      6  C   UNL     1      -6.026   9.678 -32.246  1.00  0.00    +0.034 C 
BRANCH   6   7
ATOM      7  C   UNL     1      -6.093   8.454 -33.156  1.00  0.00    +0.107 C 
BRANCH   7   8
ATOM      8  N   UNL     1      -4.779   8.078 -33.638  1.00  0.00    -0.299 N 
ATOM      9  C   UNL     1      -4.379   8.337 -34.933  1.00  0.00    +0.304 C 
ATOM     10  O   UNL     1      -5.115   8.889 -35.741  1.00  0.00    -0.253 OA
ATOM     11  N   UNL     1      -3.093   7.894 -35.153  1.00  0.00    -0.269 N 
ATOM     12  H   UNL     1      -4.133   7.666 -32.984  1.00  0.00    +0.150 HD
ATOM     13  H   UNL     1      -2.642   7.443 -34.376  1.00  0.00    +0.156 HD
BRANCH  11  14
ATOM     14  C   UNL     1      -2.338   7.989 -36.340  1.00  0.00    +0.035 A 
ATOM     15  C   UNL     1      -2.419   7.084 -37.394  1.00  0.00    +0.023 A 
ATOM     16  C   UNL     1      -1.633   7.251 -38.544  1.00  0.00    +0.006 A 
ATOM     17  C   UNL     1      -0.742   8.327 -38.677  1.00  0.00    -0.042 A 
ATOM     18  C   UNL     1      -0.674   9.232 -37.604  1.00  0.00    +0.006 A 
ATOM     19  C   UNL     1      -1.458   9.067 -36.455  1.00  0.00    +0.023 A 
BRANCH  17  20
ATOM     20  C   UNL     1       0.131   8.536 -39.926  1.00  0.00    -0.013 C 
ATOM     21  C   UNL     1      -0.767   8.615 -41.179  1.00  0.00    +0.015 C 
ATOM     22  C   UNL     1       1.112   7.354 -40.078  1.00  0.00    +0.015 C 
ATOM     23  C   UNL     1       0.976   9.829 -39.889  1.00  0.00    +0.015 C 
ENDBRANCH  17  20
ENDBRANCH  11  14
ENDBRANCH   7   8
ENDBRANCH   6   7
ENDBRANCH   5   6
ENDBRANCH   1   5
BRANCH   1  24
ATOM     24  C   UNL     1      -3.575  11.266 -32.031  1.00  0.00    +0.119 C 
BRANCH  24  25
ATOM     25  C   UNL     1      -4.298  12.432 -32.737  1.00  0.00    +0.166 C 
ATOM     26  C   UNL     1      -3.820  12.603 -34.178  1.00  0.00    +0.177 C 
ATOM     27  C   UNL     1      -4.198  14.047 -34.475  1.00  0.00    +0.195 C 
ATOM     28  C   UNL     1      -4.084  14.720 -33.098  1.00  0.00    +0.252 C 
ATOM     29  O   UNL     1      -4.025  13.691 -32.092  1.00  0.00    -0.347 OA
BRANCH  28  30
ATOM     30  N   UNL     1      -2.967  15.624 -32.881  1.00  0.00    -0.302 N 
ATOM     31  C   UNL     1      -3.083  16.998 -32.904  1.00  0.00    +0.106 A 
ATOM     32  C   UNL     1      -1.842  17.520 -32.637  1.00  0.00    +0.048 A 
ATOM     33  C   UNL     1      -0.929  16.458 -32.438  1.00  0.00    +0.072 A 
ATOM     34  C   UNL     1      -1.665  15.287 -32.597  1.00  0.00    +0.149 A 
ATOM     35  N   UNL     1      -1.189  14.035 -32.497  1.00  0.00    -0.218 NA
ATOM     36  C   UNL     1       0.121  14.018 -32.206  1.00  0.00    +0.225 A 
ATOM     37  N   UNL     1       0.944  15.065 -32.030  1.00  0.00    -0.220 NA
ATOM     38  C   UNL     1       0.435  16.308 -32.142  1.00  0.00    +0.130 A 
ATOM     39 BR   UNL     1      -1.433  19.349 -32.543  1.00  0.00    -0.048 Br
BRANCH  38  40
ATOM     40  N   UNL     1       1.305  17.354 -31.953  1.00  0.00    -0.343 N 
ATOM     41  H   UNL     1       1.161  17.930 -31.138  1.00  0.00    +0.144 HD
ATOM     42  H   UNL     1       2.041  17.551 -32.613  1.00  0.00    +0.144 HD
ENDBRANCH  38  40
ENDBRANCH  28  30
BRANCH  27  43
ATOM     43  O   UNL     1      -5.570  14.053 -34.944  1.00  0.00    -0.385 OA
ATOM     44  H   UNL     1      -6.142  13.965 -34.159  1.00  0.00    +0.210 HD
ENDBRANCH  27  43
BRANCH  26  45
ATOM     45  O   UNL     1      -4.451  11.694 -35.075  1.00  0.00    -0.386 OA
ATOM     46  H   UNL     1      -5.111  11.212 -34.532  1.00  0.00    +0.210 HD
ENDBRANCH  26  45
ENDBRANCH  24  25
ENDBRANCH   1  24
TORSDOF 13
ENDMDL
