MODEL 1
REMARK VINA RESULT:    -8.743      0.000      0.000
REMARK INTER + INTRA:         -16.676
REMARK INTER:                 -15.132
REMARK INTRA:                  -1.544
REMARK UNBOUND:                -1.544
REMARK  Name = 
REMARK  14 active torsions:
REMARK  status: ('A' for Active; 'I' for Inactive)
REMARK    1  A    between atoms: C_3  and  C_14
REMARK    2  A    between atoms: C_5  and  C_7
REMARK    3  A    between atoms: C_14  and  N_15
REMARK    4  A    between atoms: N_15  and  C_16
REMARK    5  A    between atoms: C_16  and  C_17
REMARK    6  A    between atoms: C_17  and  C_18
REMARK    7  A    between atoms: C_18  and  C_19
REMARK    8  A    between atoms: C_19  and  S_20
REMARK    9  A    between atoms: S_20  and  C_21
REMARK   10  A    between atoms: C_21  and  C_22
REMARK   11  A    between atoms: C_23  and  O_38
REMARK   12  A    between atoms: C_24  and  O_37
REMARK   13  A    between atoms: C_25  and  N_27
REMARK   14  A    between atoms: C_35  and  N_36
REMARK                            x       y       z     vdW  Elec       q    Type
REMARK                         _______ _______ _______ _____ _____    ______ ____
ROOT
ATOM      1  C   UNL     1      -1.072  14.512 -30.855  1.00  0.00    +0.103 C 
ENDROOT
BRANCH   1   2
ATOM      2  C   UNL     1      -1.796  14.781 -32.180  1.00  0.00    +0.162 C 
ATOM      3  C   UNL     1      -3.299  15.033 -32.106  1.00  0.00    +0.177 C 
ATOM      4  C   UNL     1      -3.712  14.824 -33.557  1.00  0.00    +0.195 C 
ATOM      5  C   UNL     1      -2.711  13.772 -34.059  1.00  0.00    +0.253 C 
ATOM      6  O   UNL     1      -1.617  13.702 -33.112  1.00  0.00    -0.347 OA
BRANCH   5   7
ATOM      7  N   UNL     1      -3.215  12.431 -34.258  1.00  0.00    -0.286 N 
ATOM      8  C   UNL     1      -4.467  12.008 -33.885  1.00  0.00    +0.203 A 
ATOM      9  N   UNL     1      -4.680  10.750 -34.201  1.00  0.00    -0.231 NA
ATOM     10  C   UNL     1      -3.517  10.343 -34.823  1.00  0.00    +0.147 A 
ATOM     11  C   UNL     1      -2.593  11.375 -34.862  1.00  0.00    +0.167 A 
ATOM     12  N   UNL     1      -1.356  11.330 -35.385  1.00  0.00    -0.216 NA
ATOM     13  C   UNL     1      -1.096  10.115 -35.910  1.00  0.00    +0.225 A 
ATOM     14  N   UNL     1      -1.895   9.028 -35.943  1.00  0.00    -0.219 NA
ATOM     15  C   UNL     1      -3.128   9.120 -35.396  1.00  0.00    +0.147 A 
BRANCH  15  16
ATOM     16  N   UNL     1      -3.942   8.012 -35.428  1.00  0.00    -0.341 N 
ATOM     17  H   UNL     1      -4.911   8.106 -35.160  1.00  0.00    +0.144 HD
ATOM     18  H   UNL     1      -3.547   7.138 -35.734  1.00  0.00    +0.144 HD
ENDBRANCH  15  16
ENDBRANCH   5   7
BRANCH   4  19
ATOM     19  O   UNL     1      -3.532  16.060 -34.277  1.00  0.00    -0.385 OA
ATOM     20  H   UNL     1      -4.004  16.732 -33.740  1.00  0.00    +0.210 HD
ENDBRANCH   4  19
BRANCH   3  21
ATOM     21  O   UNL     1      -3.626  16.351 -31.670  1.00  0.00    -0.386 OA
ATOM     22  H   UNL     1      -3.435  16.949 -32.418  1.00  0.00    +0.210 HD
ENDBRANCH   3  21
ENDBRANCH   1   2
BRANCH   1  23
ATOM     23  S   UNL     1       0.592  15.251 -30.663  1.00  0.00    -0.158 S 
BRANCH  23  24
ATOM     24  C   UNL     1       0.699  16.248 -32.190  1.00  0.00    +0.069 C 
BRANCH  24  25
ATOM     25  C   UNL     1       1.499  17.539 -32.005  1.00  0.00    +0.012 C 
BRANCH  25  26
ATOM     26  C   UNL     1       0.683  18.816 -32.235  1.00  0.00    +0.016 C 
BRANCH  26  27
ATOM     27  C   UNL     1      -0.827  18.584 -32.105  1.00  0.00    +0.081 C 
BRANCH  27  28
ATOM     28  N   UNL     1      -1.559  19.344 -33.120  1.00  0.00    -0.312 NA
ATOM     29  H   UNL     1      -1.527  18.834 -34.002  1.00  0.00    +0.122 HD
BRANCH  28  30
ATOM     30  C   UNL     1      -2.963  19.554 -32.751  1.00  0.00    +0.116 C 
BRANCH  30  33
ATOM     31  C   UNL     1      -4.119  23.155 -33.218  1.00  0.00    +0.001 A 
ATOM     32  C   UNL     1      -3.818  21.819 -33.479  1.00  0.00    +0.005 A 
ATOM     33  C   UNL     1      -3.307  20.998 -32.467  1.00  0.00    -0.033 A 
ATOM     34  C   UNL     1      -3.092  21.550 -31.191  1.00  0.00    +0.013 A 
ATOM     35  C   UNL     1      -3.393  22.893 -30.905  1.00  0.00    -0.018 A 
ATOM     36  C   UNL     1      -3.910  23.685 -31.943  1.00  0.00    +0.008 A 
BRANCH  35  37
ATOM     37  C   UNL     1      -3.174  23.450 -29.560  1.00  0.00    -0.018 A 
ATOM     38  C   UNL     1      -2.682  24.757 -29.390  1.00  0.00    +0.010 A 
ATOM     39  C   UNL     1      -2.473  25.288 -28.113  1.00  0.00    +0.020 A 
ATOM     40  C   UNL     1      -2.752  24.516 -26.989  1.00  0.00    +0.041 A 
ATOM     41  C   UNL     1      -3.239  23.219 -27.131  1.00  0.00    +0.020 A 
ATOM     42  C   UNL     1      -3.447  22.692 -28.409  1.00  0.00    +0.010 A 
ATOM     43 CL   UNL     1      -2.497  25.168 -25.417  1.00  0.00    -0.084 Cl
ENDBRANCH  35  37
ENDBRANCH  30  33
ENDBRANCH  28  30
ENDBRANCH  27  28
ENDBRANCH  26  27
ENDBRANCH  25  26
ENDBRANCH  24  25
ENDBRANCH  23  24
ENDBRANCH   1  23
TORSDOF 14
ENDMDL
MODEL 2
REMARK VINA RESULT:    -8.229      4.365      8.043
REMARK INTER + INTRA:         -15.787
REMARK INTER:                 -13.216
REMARK INTRA:                  -2.571
REMARK UNBOUND:                -1.544
REMARK  Name = 
REMARK  14 active torsions:
REMARK  status: ('A' for Active; 'I' for Inactive)
REMARK    1  A    between atoms: C_3  and  C_14
REMARK    2  A    between atoms: C_5  and  C_7
REMARK    3  A    between atoms: C_14  and  N_15
REMARK    4  A    between atoms: N_15  and  C_16
REMARK    5  A    between atoms: C_16  and  C_17
REMARK    6  A    between atoms: C_17  and  C_18
REMARK    7  A    between atoms: C_18  and  C_19
REMARK    8  A    between atoms: C_19  and  S_20
REMARK    9  A    between atoms: S_20  and  C_21
REMARK   10  A    between atoms: C_21  and  C_22
REMARK   11  A    between atoms: C_23  and  O_38
REMARK   12  A    between atoms: C_24  and  O_37
REMARK   13  A    between atoms: C_25  and  N_27
REMARK   14  A    between atoms: C_35  and  N_36
REMARK                            x       y       z     vdW  Elec       q    Type
REMARK                         _______ _______ _______ _____ _____    ______ ____
ROOT
ATOM      1  C   UNL     1      -3.118  15.564 -31.647  1.00  0.00    +0.103 C 
ENDROOT
BRANCH   1   2
ATOM      2  C   UNL     1      -2.529  16.659 -32.545  1.00  0.00    +0.162 C 
ATOM      3  C   UNL     1      -1.121  17.142 -32.210  1.00  0.00    +0.177 C 
ATOM      4  C   UNL     1      -1.060  18.453 -32.984  1.00  0.00    +0.195 C 
ATOM      5  C   UNL     1      -2.515  18.943 -32.960  1.00  0.00    +0.253 C 
ATOM      6  O   UNL     1      -3.359  17.833 -32.566  1.00  0.00    -0.347 OA
BRANCH   5   7
ATOM      7  N   UNL     1      -2.817  20.061 -32.093  1.00  0.00    -0.286 N 
ATOM      8  C   UNL     1      -2.629  20.061 -30.733  1.00  0.00    +0.203 A 
ATOM      9  N   UNL     1      -2.961  21.210 -30.186  1.00  0.00    -0.231 NA
ATOM     10  C   UNL     1      -3.368  21.996 -31.245  1.00  0.00    +0.147 A 
ATOM     11  C   UNL     1      -3.289  21.295 -32.439  1.00  0.00    +0.167 A 
ATOM     12  N   UNL     1      -3.612  21.747 -33.661  1.00  0.00    -0.216 NA
ATOM     13  C   UNL     1      -4.030  23.028 -33.610  1.00  0.00    +0.225 A 
ATOM     14  N   UNL     1      -4.155  23.827 -32.529  1.00  0.00    -0.219 NA
ATOM     15  C   UNL     1      -3.826  23.323 -31.318  1.00  0.00    +0.147 A 
BRANCH  15  16
ATOM     16  N   UNL     1      -3.954  24.135 -30.215  1.00  0.00    -0.341 N 
ATOM     17  H   UNL     1      -3.352  24.941 -30.125  1.00  0.00    +0.144 HD
ATOM     18  H   UNL     1      -4.659  23.907 -29.533  1.00  0.00    +0.144 HD
ENDBRANCH  15  16
ENDBRANCH   5   7
BRANCH   4  19
ATOM     19  O   UNL     1      -0.653  18.178 -34.340  1.00  0.00    -0.385 OA
ATOM     20  H   UNL     1       0.077  17.528 -34.253  1.00  0.00    +0.210 HD
ENDBRANCH   4  19
BRANCH   3  21
ATOM     21  O   UNL     1      -0.102  16.245 -32.650  1.00  0.00    -0.386 OA
ATOM     22  H   UNL     1       0.528  16.152 -31.910  1.00  0.00    +0.210 HD
ENDBRANCH   3  21
ENDBRANCH   1   2
BRANCH   1  23
ATOM     23  S   UNL     1      -2.759  13.832 -32.120  1.00  0.00    -0.158 S 
BRANCH  23  24
ATOM     24  C   UNL     1      -1.663  13.325 -30.750  1.00  0.00    +0.069 C 
BRANCH  24  25
ATOM     25  C   UNL     1      -0.194  13.230 -31.164  1.00  0.00    +0.012 C 
BRANCH  25  26
ATOM     26  C   UNL     1       0.791  13.313 -29.992  1.00  0.00    +0.016 C 
BRANCH  26  27
ATOM     27  C   UNL     1       0.280  14.206 -28.854  1.00  0.00    +0.081 C 
BRANCH  27  28
ATOM     28  N   UNL     1       0.721  15.589 -29.041  1.00  0.00    -0.312 NA
ATOM     29  H   UNL     1       0.598  16.097 -28.165  1.00  0.00    +0.122 HD
BRANCH  28  30
ATOM     30  C   UNL     1       2.130  15.675 -29.437  1.00  0.00    +0.116 C 
BRANCH  30  33
ATOM     31  C   UNL     1       3.426  17.842 -32.291  1.00  0.00    +0.001 A 
ATOM     32  C   UNL     1       3.116  16.728 -31.513  1.00  0.00    +0.005 A 
ATOM     33  C   UNL     1       2.450  16.880 -30.291  1.00  0.00    -0.033 A 
ATOM     34  C   UNL     1       2.115  18.176 -29.860  1.00  0.00    +0.013 A 
ATOM     35  C   UNL     1       2.413  19.313 -30.630  1.00  0.00    -0.018 A 
ATOM     36  C   UNL     1       3.075  19.121 -31.854  1.00  0.00    +0.008 A 
BRANCH  35  37
ATOM     37  C   UNL     1       2.041  20.660 -30.170  1.00  0.00    -0.018 A 
ATOM     38  C   UNL     1       2.968  21.717 -30.200  1.00  0.00    +0.010 A 
ATOM     39  C   UNL     1       2.617  22.999 -29.763  1.00  0.00    +0.020 A 
ATOM     40  C   UNL     1       1.333  23.238 -29.287  1.00  0.00    +0.041 A 
ATOM     41  C   UNL     1       0.396  22.209 -29.244  1.00  0.00    +0.020 A 
ATOM     42  C   UNL     1       0.750  20.929 -29.683  1.00  0.00    +0.010 A 
ATOM     43 CL   UNL     1       0.898  24.814 -28.748  1.00  0.00    -0.084 Cl
ENDBRANCH  35  37
ENDBRANCH  30  33
ENDBRANCH  28  30
ENDBRANCH  27  28
ENDBRANCH  26  27
ENDBRANCH  25  26
ENDBRANCH  24  25
ENDBRANCH  23  24
ENDBRANCH   1  23
TORSDOF 14
ENDMDL
MODEL 3
REMARK VINA RESULT:    -8.199      4.535     12.717
REMARK INTER + INTRA:         -15.733
REMARK INTER:                 -14.247
REMARK INTRA:                  -1.487
REMARK UNBOUND:                -1.544
REMARK  Name = 
REMARK  14 active torsions:
REMARK  status: ('A' for Active; 'I' for Inactive)
REMARK    1  A    between atoms: C_3  and  C_14
REMARK    2  A    between atoms: C_5  and  C_7
REMARK    3  A    between atoms: C_14  and  N_15
REMARK    4  A    between atoms: N_15  and  C_16
REMARK    5  A    between atoms: C_16  and  C_17
REMARK    6  A    between atoms: C_17  and  C_18
REMARK    7  A    between atoms: C_18  and  C_19
REMARK    8  A    between atoms: C_19  and  S_20
REMARK    9  A    between atoms: S_20  and  C_21
REMARK   10  A    between atoms: C_21  and  C_22
REMARK   11  A    between atoms: C_23  and  O_38
REMARK   12  A    between atoms: C_24  and  O_37
REMARK   13  A    between atoms: C_25  and  N_27
REMARK   14  A    between atoms: C_35  and  N_36
REMARK                            x       y       z     vdW  Elec       q    Type
REMARK                         _______ _______ _______ _____ _____    ______ ____
ROOT
ATOM      1  C   UNL     1      -3.047  15.559 -31.594  1.00  0.00    +0.103 C 
ENDROOT
BRANCH   1   2
ATOM      2  C   UNL     1      -2.475  16.647 -32.511  1.00  0.00    +0.162 C 
ATOM      3  C   UNL     1      -1.063  17.137 -32.201  1.00  0.00    +0.177 C 
ATOM      4  C   UNL     1      -1.017  18.440 -32.988  1.00  0.00    +0.195 C 
ATOM      5  C   UNL     1      -2.473  18.927 -32.948  1.00  0.00    +0.253 C 
ATOM      6  O   UNL     1      -3.308  17.819 -32.531  1.00  0.00    -0.347 OA
BRANCH   5   7
ATOM      7  N   UNL     1      -2.765  20.052 -32.087  1.00  0.00    -0.286 N 
ATOM      8  C   UNL     1      -2.558  20.066 -30.730  1.00  0.00    +0.203 A 
ATOM      9  N   UNL     1      -2.885  21.219 -30.190  1.00  0.00    -0.231 NA
ATOM     10  C   UNL     1      -3.308  21.994 -31.250  1.00  0.00    +0.147 A 
ATOM     11  C   UNL     1      -3.245  21.282 -32.438  1.00  0.00    +0.167 A 
ATOM     12  N   UNL     1      -3.587  21.721 -33.660  1.00  0.00    -0.216 NA
ATOM     13  C   UNL     1      -4.007  23.002 -33.615  1.00  0.00    +0.225 A 
ATOM     14  N   UNL     1      -4.119  23.810 -32.540  1.00  0.00    -0.219 NA
ATOM     15  C   UNL     1      -3.771  23.319 -31.329  1.00  0.00    +0.147 A 
BRANCH  15  16
ATOM     16  N   UNL     1      -3.886  24.141 -30.233  1.00  0.00    -0.341 N 
ATOM     17  H   UNL     1      -3.059  24.593 -29.868  1.00  0.00    +0.144 HD
ATOM     18  H   UNL     1      -4.799  24.280 -29.833  1.00  0.00    +0.144 HD
ENDBRANCH  15  16
ENDBRANCH   5   7
BRANCH   4  19
ATOM     19  O   UNL     1      -0.629  18.153 -34.347  1.00  0.00    -0.385 OA
ATOM     20  H   UNL     1      -1.117  17.334 -34.577  1.00  0.00    +0.210 HD
ENDBRANCH   4  19
BRANCH   3  21
ATOM     21  O   UNL     1      -0.048  16.238 -32.647  1.00  0.00    -0.386 OA
ATOM     22  H   UNL     1       0.468  16.714 -33.326  1.00  0.00    +0.210 HD
ENDBRANCH   3  21
ENDBRANCH   1   2
BRANCH   1  23
ATOM     23  S   UNL     1      -2.282  13.900 -31.709  1.00  0.00    -0.158 S 
BRANCH  23  24
ATOM     24  C   UNL     1      -2.926  13.341 -33.324  1.00  0.00    +0.069 C 
BRANCH  24  25
ATOM     25  C   UNL     1      -3.599  11.969 -33.256  1.00  0.00    +0.012 C 
BRANCH  25  26
ATOM     26  C   UNL     1      -3.689  11.389 -31.839  1.00  0.00    +0.016 C 
BRANCH  26  27
ATOM     27  C   UNL     1      -5.093  10.875 -31.499  1.00  0.00    +0.081 C 
BRANCH  27  28
ATOM     28  N   UNL     1      -5.867  10.632 -32.717  1.00  0.00    -0.312 NA
ATOM     29  H   UNL     1      -5.300  10.887 -33.526  1.00  0.00    +0.122 HD
BRANCH  28  30
ATOM     30  C   UNL     1      -6.267   9.228 -32.851  1.00  0.00    +0.116 C 
BRANCH  30  33
ATOM     31  C   UNL     1      -3.619   6.497 -32.619  1.00  0.00    +0.001 A 
ATOM     32  C   UNL     1      -4.681   7.340 -32.294  1.00  0.00    +0.005 A 
ATOM     33  C   UNL     1      -5.127   8.301 -33.208  1.00  0.00    -0.033 A 
ATOM     34  C   UNL     1      -4.474   8.411 -34.449  1.00  0.00    +0.013 A 
ATOM     35  C   UNL     1      -3.405   7.569 -34.798  1.00  0.00    -0.018 A 
ATOM     36  C   UNL     1      -2.989   6.611 -33.860  1.00  0.00    +0.008 A 
BRANCH  35  37
ATOM     37  C   UNL     1      -2.742   7.687 -36.108  1.00  0.00    -0.018 A 
ATOM     38  C   UNL     1      -2.785   6.634 -37.039  1.00  0.00    +0.010 A 
ATOM     39  C   UNL     1      -2.156   6.744 -38.283  1.00  0.00    +0.020 A 
ATOM     40  C   UNL     1      -1.473   7.911 -38.610  1.00  0.00    +0.041 A 
ATOM     41  C   UNL     1      -1.413   8.968 -37.706  1.00  0.00    +0.020 A 
ATOM     42  C   UNL     1      -2.044   8.855 -36.463  1.00  0.00    +0.010 A 
ATOM     43 CL   UNL     1      -0.698   8.049 -40.141  1.00  0.00    -0.084 Cl
ENDBRANCH  35  37
ENDBRANCH  30  33
ENDBRANCH  28  30
ENDBRANCH  27  28
ENDBRANCH  26  27
ENDBRANCH  25  26
ENDBRANCH  24  25
ENDBRANCH  23  24
ENDBRANCH   1  23
TORSDOF 14
ENDMDL
MODEL 4
REMARK VINA RESULT:    -8.174      4.884     13.215
REMARK INTER + INTRA:         -15.691
REMARK INTER:                 -14.576
REMARK INTRA:                  -1.116
REMARK UNBOUND:                -1.544
REMARK  Name = 
REMARK  14 active torsions:
REMARK  status: ('A' for Active; 'I' for Inactive)
REMARK    1  A    between atoms: C_3  and  C_14
REMARK    2  A    between atoms: C_5  and  C_7
REMARK    3  A    between atoms: C_14  and  N_15
REMARK    4  A    between atoms: N_15  and  C_16
REMARK    5  A    between atoms: C_16  and  C_17
REMARK    6  A    between atoms: C_17  and  C_18
REMARK    7  A    between atoms: C_18  and  C_19
REMARK    8  A    between atoms: C_19  and  S_20
REMARK    9  A    between atoms: S_20  and  C_21
REMARK   10  A    between atoms: C_21  and  C_22
REMARK   11  A    between atoms: C_23  and  O_38
REMARK   12  A    between atoms: C_24  and  O_37
REMARK   13  A    between atoms: C_25  and  N_27
REMARK   14  A    between atoms: C_35  and  N_36
REMARK                            x       y       z     vdW  Elec       q    Type
REMARK                         _______ _______ _______ _____ _____    ______ ____
ROOT
ATOM      1  C   UNL     1      -3.263  15.556 -31.682  1.00  0.00    +0.103 C 
ENDROOT
BRANCH   1   2
ATOM      2  C   UNL     1      -2.627  16.629 -32.574  1.00  0.00    +0.162 C 
ATOM      3  C   UNL     1      -1.202  17.054 -32.234  1.00  0.00    +0.177 C 
ATOM      4  C   UNL     1      -1.085  18.364 -33.002  1.00  0.00    +0.195 C 
ATOM      5  C   UNL     1      -2.520  18.913 -32.981  1.00  0.00    +0.253 C 
ATOM      6  O   UNL     1      -3.408  17.837 -32.594  1.00  0.00    -0.347 OA
BRANCH   5   7
ATOM      7  N   UNL     1      -2.778  20.039 -32.110  1.00  0.00    -0.286 N 
ATOM      8  C   UNL     1      -2.544  20.044 -30.757  1.00  0.00    +0.203 A 
ATOM      9  N   UNL     1      -2.844  21.200 -30.206  1.00  0.00    -0.231 NA
ATOM     10  C   UNL     1      -3.278  21.985 -31.255  1.00  0.00    +0.147 A 
ATOM     11  C   UNL     1      -3.248  21.277 -32.447  1.00  0.00    +0.167 A 
ATOM     12  N   UNL     1      -3.608  21.726 -33.660  1.00  0.00    -0.216 NA
ATOM     13  C   UNL     1      -4.009  23.012 -33.602  1.00  0.00    +0.225 A 
ATOM     14  N   UNL     1      -4.088  23.818 -32.522  1.00  0.00    -0.219 NA
ATOM     15  C   UNL     1      -3.723  23.316 -31.320  1.00  0.00    +0.147 A 
BRANCH  15  16
ATOM     16  N   UNL     1      -3.804  24.136 -30.218  1.00  0.00    -0.341 N 
ATOM     17  H   UNL     1      -3.065  24.803 -30.045  1.00  0.00    +0.144 HD
ATOM     18  H   UNL     1      -4.611  24.055 -29.621  1.00  0.00    +0.144 HD
ENDBRANCH  15  16
ENDBRANCH   5   7
BRANCH   4  19
ATOM     19  O   UNL     1      -0.685  18.078 -34.357  1.00  0.00    -0.385 OA
ATOM     20  H   UNL     1      -1.485  17.693 -34.776  1.00  0.00    +0.210 HD
ENDBRANCH   4  19
BRANCH   3  21
ATOM     21  O   UNL     1      -0.218  16.118 -32.674  1.00  0.00    -0.386 OA
ATOM     22  H   UNL     1      -0.242  15.371 -32.046  1.00  0.00    +0.210 HD
ENDBRANCH   3  21
ENDBRANCH   1   2
BRANCH   1  23
ATOM     23  S   UNL     1      -3.354  13.863 -32.373  1.00  0.00    -0.158 S 
BRANCH  23  24
ATOM     24  C   UNL     1      -4.262  14.178 -33.926  1.00  0.00    +0.069 C 
BRANCH  24  25
ATOM     25  C   UNL     1      -4.313  12.957 -34.846  1.00  0.00    +0.012 C 
BRANCH  25  26
ATOM     26  C   UNL     1      -4.480  11.625 -34.105  1.00  0.00    +0.016 C 
BRANCH  26  27
ATOM     27  C   UNL     1      -4.207  10.412 -35.002  1.00  0.00    +0.081 C 
BRANCH  27  28
ATOM     28  N   UNL     1      -3.809   9.253 -34.202  1.00  0.00    -0.312 NA
ATOM     29  H   UNL     1      -4.474   8.496 -34.362  1.00  0.00    +0.122 HD
BRANCH  28  30
ATOM     30  C   UNL     1      -2.466   8.776 -34.544  1.00  0.00    +0.116 C 
BRANCH  30  33
ATOM     31  C   UNL     1      -2.966   5.992 -37.098  1.00  0.00    +0.001 A 
ATOM     32  C   UNL     1      -3.033   6.731 -35.918  1.00  0.00    +0.005 A 
ATOM     33  C   UNL     1      -2.411   7.981 -35.829  1.00  0.00    -0.033 A 
ATOM     34  C   UNL     1      -1.707   8.468 -36.945  1.00  0.00    +0.013 A 
ATOM     35  C   UNL     1      -1.631   7.743 -38.146  1.00  0.00    -0.018 A 
ATOM     36  C   UNL     1      -2.274   6.495 -38.201  1.00  0.00    +0.008 A 
BRANCH  35  37
ATOM     37  C   UNL     1      -0.903   8.274 -39.309  1.00  0.00    -0.018 A 
ATOM     38  C   UNL     1       0.330   8.934 -39.152  1.00  0.00    +0.010 A 
ATOM     39  C   UNL     1       1.023   9.440 -40.257  1.00  0.00    +0.020 A 
ATOM     40  C   UNL     1       0.490   9.294 -41.533  1.00  0.00    +0.041 A 
ATOM     41  C   UNL     1      -0.729   8.648 -41.716  1.00  0.00    +0.020 A 
ATOM     42  C   UNL     1      -1.419   8.142 -40.610  1.00  0.00    +0.010 A 
ATOM     43 CL   UNL     1       1.342   9.916 -42.893  1.00  0.00    -0.084 Cl
ENDBRANCH  35  37
ENDBRANCH  30  33
ENDBRANCH  28  30
ENDBRANCH  27  28
ENDBRANCH  26  27
ENDBRANCH  25  26
ENDBRANCH  24  25
ENDBRANCH  23  24
ENDBRANCH   1  23
TORSDOF 14
ENDMDL
MODEL 5
REMARK VINA RESULT:    -8.117      4.392      5.498
REMARK INTER + INTRA:         -15.592
REMARK INTER:                 -14.352
REMARK INTRA:                  -1.240
REMARK UNBOUND:                -1.544
REMARK  Name = 
REMARK  14 active torsions:
REMARK  status: ('A' for Active; 'I' for Inactive)
REMARK    1  A    between atoms: C_3  and  C_14
REMARK    2  A    between atoms: C_5  and  C_7
REMARK    3  A    between atoms: C_14  and  N_15
REMARK    4  A    between atoms: N_15  and  C_16
REMARK    5  A    between atoms: C_16  and  C_17
REMARK    6  A    between atoms: C_17  and  C_18
REMARK    7  A    between atoms: C_18  and  C_19
REMARK    8  A    between atoms: C_19  and  S_20
REMARK    9  A    between atoms: S_20  and  C_21
REMARK   10  A    between atoms: C_21  and  C_22
REMARK   11  A    between atoms: C_23  and  O_38
REMARK   12  A    between atoms: C_24  and  O_37
REMARK   13  A    between atoms: C_25  and  N_27
REMARK   14  A    between atoms: C_35  and  N_36
REMARK                            x       y       z     vdW  Elec       q    Type
REMARK                         _______ _______ _______ _____ _____    ______ ____
ROOT
ATOM      1  C   UNL     1      -2.560  11.579 -32.608  1.00  0.00    +0.103 C 
ENDROOT
BRANCH   1   2
ATOM      2  C   UNL     1      -3.546  10.433 -32.357  1.00  0.00    +0.162 C 
ATOM      3  C   UNL     1      -5.010  10.814 -32.153  1.00  0.00    +0.177 C 
ATOM      4  C   UNL     1      -5.568   9.544 -31.525  1.00  0.00    +0.195 C 
ATOM      5  C   UNL     1      -4.371   8.984 -30.741  1.00  0.00    +0.253 C 
ATOM      6  O   UNL     1      -3.174   9.652 -31.208  1.00  0.00    -0.347 OA
BRANCH   5   7
ATOM      7  N   UNL     1      -4.416   9.105 -29.301  1.00  0.00    -0.286 N 
ATOM      8  C   UNL     1      -3.671  10.000 -28.574  1.00  0.00    +0.203 A 
ATOM      9  N   UNL     1      -3.918   9.919 -27.284  1.00  0.00    -0.231 NA
ATOM     10  C   UNL     1      -4.880   8.936 -27.174  1.00  0.00    +0.147 A 
ATOM     11  C   UNL     1      -5.198   8.415 -28.418  1.00  0.00    +0.167 A 
ATOM     12  N   UNL     1      -6.085   7.441 -28.682  1.00  0.00    -0.216 NA
ATOM     13  C   UNL     1      -6.679   7.008 -27.551  1.00  0.00    +0.225 A 
ATOM     14  N   UNL     1      -6.471   7.421 -26.283  1.00  0.00    -0.219 NA
ATOM     15  C   UNL     1      -5.560   8.398 -26.068  1.00  0.00    +0.147 A 
BRANCH  15  16
ATOM     16  N   UNL     1      -5.346   8.819 -24.776  1.00  0.00    -0.341 N 
ATOM     17  H   UNL     1      -6.052   8.639 -24.077  1.00  0.00    +0.144 HD
ATOM     18  H   UNL     1      -4.479   9.283 -24.563  1.00  0.00    +0.144 HD
ENDBRANCH  15  16
ENDBRANCH   5   7
BRANCH   4  19
ATOM     19  O   UNL     1      -5.944   8.629 -32.574  1.00  0.00    -0.385 OA
ATOM     20  H   UNL     1      -6.924   8.673 -32.603  1.00  0.00    +0.210 HD
ENDBRANCH   4  19
BRANCH   3  21
ATOM     21  O   UNL     1      -5.685  11.116 -33.374  1.00  0.00    -0.386 OA
ATOM     22  H   UNL     1      -6.572  11.442 -33.129  1.00  0.00    +0.210 HD
ENDBRANCH   3  21
ENDBRANCH   1   2
BRANCH   1  23
ATOM     23  S   UNL     1      -2.248  12.716 -31.208  1.00  0.00    -0.158 S 
BRANCH  23  24
ATOM     24  C   UNL     1      -3.340  14.111 -31.652  1.00  0.00    +0.069 C 
BRANCH  24  25
ATOM     25  C   UNL     1      -3.434  14.338 -33.162  1.00  0.00    +0.012 C 
BRANCH  25  26
ATOM     26  C   UNL     1      -3.622  15.807 -33.560  1.00  0.00    +0.016 C 
BRANCH  26  27
ATOM     27  C   UNL     1      -2.481  16.704 -33.066  1.00  0.00    +0.081 C 
BRANCH  27  28
ATOM     28  N   UNL     1      -2.837  18.118 -33.197  1.00  0.00    -0.312 NA
ATOM     29  H   UNL     1      -3.852  18.208 -33.166  1.00  0.00    +0.122 HD
BRANCH  28  30
ATOM     30  C   UNL     1      -2.262  18.938 -32.125  1.00  0.00    +0.116 C 
BRANCH  30  33
ATOM     31  C   UNL     1      -3.975  22.192 -33.123  1.00  0.00    +0.001 A 
ATOM     32  C   UNL     1      -3.476  20.892 -33.174  1.00  0.00    +0.005 A 
ATOM     33  C   UNL     1      -2.820  20.341 -32.066  1.00  0.00    -0.033 A 
ATOM     34  C   UNL     1      -2.662  21.129 -30.912  1.00  0.00    +0.013 A 
ATOM     35  C   UNL     1      -3.161  22.440 -30.837  1.00  0.00    -0.018 A 
ATOM     36  C   UNL     1      -3.820  22.957 -31.965  1.00  0.00    +0.008 A 
BRANCH  35  37
ATOM     37  C   UNL     1      -3.000  23.246 -29.616  1.00  0.00    -0.018 A 
ATOM     38  C   UNL     1      -3.270  22.700 -28.348  1.00  0.00    +0.010 A 
ATOM     39  C   UNL     1      -3.118  23.464 -27.186  1.00  0.00    +0.020 A 
ATOM     40  C   UNL     1      -2.695  24.786 -27.279  1.00  0.00    +0.041 A 
ATOM     41  C   UNL     1      -2.422  25.351 -28.522  1.00  0.00    +0.020 A 
ATOM     42  C   UNL     1      -2.574  24.584 -29.682  1.00  0.00    +0.010 A 
ATOM     43 CL   UNL     1      -2.506  25.727 -25.851  1.00  0.00    -0.084 Cl
ENDBRANCH  35  37
ENDBRANCH  30  33
ENDBRANCH  28  30
ENDBRANCH  27  28
ENDBRANCH  26  27
ENDBRANCH  25  26
ENDBRANCH  24  25
ENDBRANCH  23  24
ENDBRANCH   1  23
TORSDOF 14
ENDMDL
MODEL 6
REMARK VINA RESULT:    -7.980      3.993      6.442
REMARK INTER + INTRA:         -15.355
REMARK INTER:                 -13.589
REMARK INTRA:                  -1.766
REMARK UNBOUND:                -1.544
REMARK  Name = 
REMARK  14 active torsions:
REMARK  status: ('A' for Active; 'I' for Inactive)
REMARK    1  A    between atoms: C_3  and  C_14
REMARK    2  A    between atoms: C_5  and  C_7
REMARK    3  A    between atoms: C_14  and  N_15
REMARK    4  A    between atoms: N_15  and  C_16
REMARK    5  A    between atoms: C_16  and  C_17
REMARK    6  A    between atoms: C_17  and  C_18
REMARK    7  A    between atoms: C_18  and  C_19
REMARK    8  A    between atoms: C_19  and  S_20
REMARK    9  A    between atoms: S_20  and  C_21
REMARK   10  A    between atoms: C_21  and  C_22
REMARK   11  A    between atoms: C_23  and  O_38
REMARK   12  A    between atoms: C_24  and  O_37
REMARK   13  A    between atoms: C_25  and  N_27
REMARK   14  A    between atoms: C_35  and  N_36
REMARK                            x       y       z     vdW  Elec       q    Type
REMARK                         _______ _______ _______ _____ _____    ______ ____
ROOT
ATOM      1  C   UNL     1      -5.162   9.066 -33.814  1.00  0.00    +0.103 C 
ENDROOT
BRANCH   1   2
ATOM      2  C   UNL     1      -5.221   9.105 -32.282  1.00  0.00    +0.162 C 
ATOM      3  C   UNL     1      -5.859  10.338 -31.648  1.00  0.00    +0.177 C 
ATOM      4  C   UNL     1      -5.361  10.230 -30.212  1.00  0.00    +0.195 C 
ATOM      5  C   UNL     1      -3.990   9.554 -30.365  1.00  0.00    +0.253 C 
ATOM      6  O   UNL     1      -3.913   8.987 -31.696  1.00  0.00    -0.347 OA
BRANCH   5   7
ATOM      7  N   UNL     1      -2.823  10.385 -30.167  1.00  0.00    -0.286 N 
ATOM      8  C   UNL     1      -2.111  10.977 -31.180  1.00  0.00    +0.203 A 
ATOM      9  N   UNL     1      -1.109  11.699 -30.726  1.00  0.00    -0.231 NA
ATOM     10  C   UNL     1      -1.187  11.580 -29.354  1.00  0.00    +0.147 A 
ATOM     11  C   UNL     1      -2.244  10.762 -28.988  1.00  0.00    +0.167 A 
ATOM     12  N   UNL     1      -2.607  10.423 -27.740  1.00  0.00    -0.216 NA
ATOM     13  C   UNL     1      -1.802  11.003 -26.827  1.00  0.00    +0.225 A 
ATOM     14  N   UNL     1      -0.745  11.816 -27.037  1.00  0.00    -0.219 NA
ATOM     15  C   UNL     1      -0.414  12.121 -28.312  1.00  0.00    +0.147 A 
BRANCH  15  16
ATOM     16  N   UNL     1       0.664  12.948 -28.527  1.00  0.00    -0.341 N 
ATOM     17  H   UNL     1       1.592  12.613 -28.312  1.00  0.00    +0.144 HD
ATOM     18  H   UNL     1       0.495  13.864 -28.910  1.00  0.00    +0.144 HD
ENDBRANCH  15  16
ENDBRANCH   5   7
BRANCH   4  19
ATOM     19  O   UNL     1      -6.254   9.376 -29.470  1.00  0.00    -0.385 OA
ATOM     20  H   UNL     1      -5.681   8.658 -29.124  1.00  0.00    +0.210 HD
ENDBRANCH   4  19
BRANCH   3  21
ATOM     21  O   UNL     1      -7.285  10.316 -31.694  1.00  0.00    -0.386 OA
ATOM     22  H   UNL     1      -7.534   9.582 -32.287  1.00  0.00    +0.210 HD
ENDBRANCH   3  21
ENDBRANCH   1   2
BRANCH   1  23
ATOM     23  S   UNL     1      -3.498   8.939 -34.569  1.00  0.00    -0.158 S 
BRANCH  23  24
ATOM     24  C   UNL     1      -3.373  10.565 -35.391  1.00  0.00    +0.069 C 
BRANCH  24  25
ATOM     25  C   UNL     1      -4.464  11.542 -34.951  1.00  0.00    +0.012 C 
BRANCH  25  26
ATOM     26  C   UNL     1      -3.928  12.824 -34.302  1.00  0.00    +0.016 C 
BRANCH  26  27
ATOM     27  C   UNL     1      -4.781  14.054 -34.632  1.00  0.00    +0.081 C 
BRANCH  27  28
ATOM     28  N   UNL     1      -4.058  15.288 -34.316  1.00  0.00    -0.312 NA
ATOM     29  H   UNL     1      -4.717  16.065 -34.309  1.00  0.00    +0.122 HD
BRANCH  28  30
ATOM     30  C   UNL     1      -3.395  15.225 -33.010  1.00  0.00    +0.116 C 
BRANCH  30  33
ATOM     31  C   UNL     1      -0.207  17.252 -32.514  1.00  0.00    +0.001 A 
ATOM     32  C   UNL     1      -1.070  16.189 -32.773  1.00  0.00    +0.005 A 
ATOM     33  C   UNL     1      -2.456  16.380 -32.748  1.00  0.00    -0.033 A 
ATOM     34  C   UNL     1      -2.958  17.658 -32.441  1.00  0.00    +0.013 A 
ATOM     35  C   UNL     1      -2.106  18.745 -32.182  1.00  0.00    -0.018 A 
ATOM     36  C   UNL     1      -0.721  18.517 -32.223  1.00  0.00    +0.008 A 
BRANCH  35  37
ATOM     37  C   UNL     1      -2.649  20.079 -31.877  1.00  0.00    -0.018 A 
ATOM     38  C   UNL     1      -3.270  20.852 -32.874  1.00  0.00    +0.010 A 
ATOM     39  C   UNL     1      -3.786  22.121 -32.587  1.00  0.00    +0.020 A 
ATOM     40  C   UNL     1      -3.684  22.632 -31.297  1.00  0.00    +0.041 A 
ATOM     41  C   UNL     1      -3.071  21.887 -30.292  1.00  0.00    +0.020 A 
ATOM     42  C   UNL     1      -2.558  20.619 -30.583  1.00  0.00    +0.010 A 
ATOM     43 CL   UNL     1      -4.318  24.191 -30.941  1.00  0.00    -0.084 Cl
ENDBRANCH  35  37
ENDBRANCH  30  33
ENDBRANCH  28  30
ENDBRANCH  27  28
ENDBRANCH  26  27
ENDBRANCH  25  26
ENDBRANCH  24  25
ENDBRANCH  23  24
ENDBRANCH   1  23
TORSDOF 14
ENDMDL
MODEL 7
REMARK VINA RESULT:    -7.922      3.544      5.747
REMARK INTER + INTRA:         -15.255
REMARK INTER:                 -13.385
REMARK INTRA:                  -1.870
REMARK UNBOUND:                -1.544
REMARK  Name = 
REMARK  14 active torsions:
REMARK  status: ('A' for Active; 'I' for Inactive)
REMARK    1  A    between atoms: C_3  and  C_14
REMARK    2  A    between atoms: C_5  and  C_7
REMARK    3  A    between atoms: C_14  and  N_15
REMARK    4  A    between atoms: N_15  and  C_16
REMARK    5  A    between atoms: C_16  and  C_17
REMARK    6  A    between atoms: C_17  and  C_18
REMARK    7  A    between atoms: C_18  and  C_19
REMARK    8  A    between atoms: C_19  and  S_20
REMARK    9  A    between atoms: S_20  and  C_21
REMARK   10  A    between atoms: C_21  and  C_22
REMARK   11  A    between atoms: C_23  and  O_38
REMARK   12  A    between atoms: C_24  and  O_37
REMARK   13  A    between atoms: C_25  and  N_27
REMARK   14  A    between atoms: C_35  and  N_36
REMARK                            x       y       z     vdW  Elec       q    Type
REMARK                         _______ _______ _______ _____ _____    ______ ____
ROOT
ATOM      1  C   UNL     1      -3.314  19.474 -32.400  1.00  0.00    +0.103 C 
ENDROOT
BRANCH   1   2
ATOM      2  C   UNL     1      -2.360  18.307 -32.117  1.00  0.00    +0.162 C 
ATOM      3  C   UNL     1      -1.453  17.865 -33.262  1.00  0.00    +0.177 C 
ATOM      4  C   UNL     1      -1.007  16.491 -32.780  1.00  0.00    +0.195 C 
ATOM      5  C   UNL     1      -2.213  15.995 -31.967  1.00  0.00    +0.253 C 
ATOM      6  O   UNL     1      -3.070  17.130 -31.694  1.00  0.00    -0.347 OA
BRANCH   5   7
ATOM      7  N   UNL     1      -3.025  14.958 -32.565  1.00  0.00    -0.286 N 
ATOM      8  C   UNL     1      -3.793  15.125 -33.691  1.00  0.00    +0.203 A 
ATOM      9  N   UNL     1      -4.414  14.019 -34.037  1.00  0.00    -0.231 NA
ATOM     10  C   UNL     1      -4.016  13.087 -33.100  1.00  0.00    +0.147 A 
ATOM     11  C   UNL     1      -3.155  13.656 -32.173  1.00  0.00    +0.167 A 
ATOM     12  N   UNL     1      -2.583  13.044 -31.123  1.00  0.00    -0.216 NA
ATOM     13  C   UNL     1      -2.939  11.745 -31.066  1.00  0.00    +0.225 A 
ATOM     14  N   UNL     1      -3.760  11.063 -31.893  1.00  0.00    -0.219 NA
ATOM     15  C   UNL     1      -4.319  11.725 -32.931  1.00  0.00    +0.147 A 
BRANCH  15  16
ATOM     16  N   UNL     1      -5.156  11.032 -33.773  1.00  0.00    -0.341 N 
ATOM     17  H   UNL     1      -5.931  10.515 -33.382  1.00  0.00    +0.144 HD
ATOM     18  H   UNL     1      -4.979  11.073 -34.764  1.00  0.00    +0.144 HD
ENDBRANCH  15  16
ENDBRANCH   5   7
BRANCH   4  19
ATOM     19  O   UNL     1       0.139  16.645 -31.919  1.00  0.00    -0.385 OA
ATOM     20  H   UNL     1       0.741  15.913 -32.173  1.00  0.00    +0.210 HD
ENDBRANCH   4  19
BRANCH   3  21
ATOM     21  O   UNL     1      -0.330  18.726 -33.450  1.00  0.00    -0.386 OA
ATOM     22  H   UNL     1       0.191  18.691 -32.625  1.00  0.00    +0.210 HD
ENDBRANCH   3  21
ENDBRANCH   1   2
BRANCH   1  23
ATOM     23  S   UNL     1      -2.772  21.132 -31.841  1.00  0.00    -0.158 S 
BRANCH  23  24
ATOM     24  C   UNL     1      -2.907  20.941 -30.030  1.00  0.00    +0.069 C 
BRANCH  24  25
ATOM     25  C   UNL     1      -3.499  22.171 -29.342  1.00  0.00    +0.012 C 
BRANCH  25  26
ATOM     26  C   UNL     1      -3.945  23.273 -30.311  1.00  0.00    +0.016 C 
BRANCH  26  27
ATOM     27  C   UNL     1      -3.152  24.573 -30.133  1.00  0.00    +0.081 C 
BRANCH  27  28
ATOM     28  N   UNL     1      -2.484  24.600 -28.830  1.00  0.00    -0.312 NA
ATOM     29  H   UNL     1      -2.008  23.711 -28.683  1.00  0.00    +0.122 HD
BRANCH  28  30
ATOM     30  C   UNL     1      -1.498  25.681 -28.734  1.00  0.00    +0.116 C 
BRANCH  30  33
ATOM     31  C   UNL     1       2.190  25.818 -29.683  1.00  0.00    +0.001 A 
ATOM     32  C   UNL     1       0.898  26.213 -29.338  1.00  0.00    +0.005 A 
ATOM     33  C   UNL     1      -0.092  25.255 -29.091  1.00  0.00    -0.033 A 
ATOM     34  C   UNL     1       0.237  23.893 -29.213  1.00  0.00    +0.013 A 
ATOM     35  C   UNL     1       1.533  23.473 -29.556  1.00  0.00    -0.018 A 
ATOM     36  C   UNL     1       2.504  24.462 -29.789  1.00  0.00    +0.008 A 
BRANCH  35  37
ATOM     37  C   UNL     1       1.864  22.043 -29.665  1.00  0.00    -0.018 A 
ATOM     38  C   UNL     1       0.876  21.057 -29.498  1.00  0.00    +0.010 A 
ATOM     39  C   UNL     1       1.188  19.697 -29.601  1.00  0.00    +0.020 A 
ATOM     40  C   UNL     1       2.496  19.307 -29.871  1.00  0.00    +0.041 A 
ATOM     41  C   UNL     1       3.494  20.264 -30.038  1.00  0.00    +0.020 A 
ATOM     42  C   UNL     1       3.178  21.622 -29.936  1.00  0.00    +0.010 A 
ATOM     43 CL   UNL     1       2.882  17.635 -29.998  1.00  0.00    -0.084 Cl
ENDBRANCH  35  37
ENDBRANCH  30  33
ENDBRANCH  28  30
ENDBRANCH  27  28
ENDBRANCH  26  27
ENDBRANCH  25  26
ENDBRANCH  24  25
ENDBRANCH  23  24
ENDBRANCH   1  23
TORSDOF 14
ENDMDL
MODEL 8
REMARK VINA RESULT:    -7.613      2.317      3.652
REMARK INTER + INTRA:         -14.720
REMARK INTER:                 -13.598
REMARK INTRA:                  -1.122
REMARK UNBOUND:                -1.544
REMARK  Name = 
REMARK  14 active torsions:
REMARK  status: ('A' for Active; 'I' for Inactive)
REMARK    1  A    between atoms: C_3  and  C_14
REMARK    2  A    between atoms: C_5  and  C_7
REMARK    3  A    between atoms: C_14  and  N_15
REMARK    4  A    between atoms: N_15  and  C_16
REMARK    5  A    between atoms: C_16  and  C_17
REMARK    6  A    between atoms: C_17  and  C_18
REMARK    7  A    between atoms: C_18  and  C_19
REMARK    8  A    between atoms: C_19  and  S_20
REMARK    9  A    between atoms: S_20  and  C_21
REMARK   10  A    between atoms: C_21  and  C_22
REMARK   11  A    between atoms: C_23  and  O_38
REMARK   12  A    between atoms: C_24  and  O_37
REMARK   13  A    between atoms: C_25  and  N_27
REMARK   14  A    between atoms: C_35  and  N_36
REMARK                            x       y       z     vdW  Elec       q    Type
REMARK                         _______ _______ _______ _____ _____    ______ ____
ROOT
ATOM      1  C   UNL     1       1.335  14.675 -30.041  1.00  0.00    +0.103 C 
ENDROOT
BRANCH   1   2
ATOM      2  C   UNL     1       0.286  13.643 -29.613  1.00  0.00    +0.162 C 
ATOM      3  C   UNL     1       0.481  12.213 -30.110  1.00  0.00    +0.177 C 
ATOM      4  C   UNL     1      -0.902  11.619 -29.874  1.00  0.00    +0.195 C 
ATOM      5  C   UNL     1      -1.838  12.821 -30.069  1.00  0.00    +0.253 C 
ATOM      6  O   UNL     1      -1.038  14.028 -30.021  1.00  0.00    -0.347 OA
BRANCH   5   7
ATOM      7  N   UNL     1      -2.620  12.854 -31.285  1.00  0.00    -0.286 N 
ATOM      8  C   UNL     1      -3.155  11.745 -31.894  1.00  0.00    +0.203 A 
ATOM      9  N   UNL     1      -3.841  12.054 -32.973  1.00  0.00    -0.231 NA
ATOM     10  C   UNL     1      -3.759  13.429 -33.057  1.00  0.00    +0.147 A 
ATOM     11  C   UNL     1      -2.999  13.943 -32.018  1.00  0.00    +0.167 A 
ATOM     12  N   UNL     1      -2.707  15.235 -31.795  1.00  0.00    -0.216 NA
ATOM     13  C   UNL     1      -3.273  16.027 -32.728  1.00  0.00    +0.225 A 
ATOM     14  N   UNL     1      -4.031  15.668 -33.785  1.00  0.00    -0.219 NA
ATOM     15  C   UNL     1      -4.290  14.354 -33.972  1.00  0.00    +0.147 A 
BRANCH  15  16
ATOM     16  N   UNL     1      -5.061  13.987 -35.050  1.00  0.00    -0.341 N 
ATOM     17  H   UNL     1      -4.951  13.063 -35.442  1.00  0.00    +0.144 HD
ATOM     18  H   UNL     1      -5.728  14.651 -35.408  1.00  0.00    +0.144 HD
ENDBRANCH  15  16
ENDBRANCH   5   7
BRANCH   4  19
ATOM     19  O   UNL     1      -0.982  11.145 -28.515  1.00  0.00    -0.385 OA
ATOM     20  H   UNL     1      -0.242  11.592 -28.052  1.00  0.00    +0.210 HD
ENDBRANCH   4  19
BRANCH   3  21
ATOM     21  O   UNL     1       1.473  11.496 -29.376  1.00  0.00    -0.386 OA
ATOM     22  H   UNL     1       1.366  10.554 -29.608  1.00  0.00    +0.210 HD
ENDBRANCH   3  21
ENDBRANCH   1   2
BRANCH   1  23
ATOM     23  S   UNL     1       0.927  15.705 -31.499  1.00  0.00    -0.158 S 
BRANCH  23  24
ATOM     24  C   UNL     1       1.950  17.182 -31.168  1.00  0.00    +0.069 C 
BRANCH  24  25
ATOM     25  C   UNL     1       1.156  18.487 -31.242  1.00  0.00    +0.012 C 
BRANCH  25  26
ATOM     26  C   UNL     1       0.791  18.915 -32.668  1.00  0.00    +0.016 C 
BRANCH  26  27
ATOM     27  C   UNL     1      -0.705  18.756 -32.967  1.00  0.00    +0.081 C 
BRANCH  27  28
ATOM     28  N   UNL     1      -1.502  18.968 -31.758  1.00  0.00    -0.312 NA
ATOM     29  H   UNL     1      -1.093  19.732 -31.222  1.00  0.00    +0.122 HD
BRANCH  28  30
ATOM     30  C   UNL     1      -2.896  19.303 -32.064  1.00  0.00    +0.116 C 
BRANCH  30  33
ATOM     31  C   UNL     1      -3.973  22.824 -33.046  1.00  0.00    +0.001 A 
ATOM     32  C   UNL     1      -3.714  21.456 -33.107  1.00  0.00    +0.005 A 
ATOM     33  C   UNL     1      -3.195  20.784 -31.994  1.00  0.00    -0.033 A 
ATOM     34  C   UNL     1      -2.928  21.516 -30.825  1.00  0.00    +0.013 A 
ATOM     35  C   UNL     1      -3.185  22.895 -30.740  1.00  0.00    -0.018 A 
ATOM     36  C   UNL     1      -3.713  23.535 -31.873  1.00  0.00    +0.008 A 
BRANCH  35  37
ATOM     37  C   UNL     1      -2.913  23.644 -29.502  1.00  0.00    -0.018 A 
ATOM     38  C   UNL     1      -3.123  23.059 -28.241  1.00  0.00    +0.010 A 
ATOM     39  C   UNL     1      -2.865  23.769 -27.064  1.00  0.00    +0.020 A 
ATOM     40  C   UNL     1      -2.395  25.076 -27.135  1.00  0.00    +0.041 A 
ATOM     41  C   UNL     1      -2.180  25.680 -28.371  1.00  0.00    +0.020 A 
ATOM     42  C   UNL     1      -2.438  24.967 -29.546  1.00  0.00    +0.010 A 
ATOM     43 CL   UNL     1      -2.076  25.952 -25.688  1.00  0.00    -0.084 Cl
ENDBRANCH  35  37
ENDBRANCH  30  33
ENDBRANCH  28  30
ENDBRANCH  27  28
ENDBRANCH  26  27
ENDBRANCH  25  26
ENDBRANCH  24  25
ENDBRANCH  23  24
ENDBRANCH   1  23
TORSDOF 14
ENDMDL
MODEL 9
REMARK VINA RESULT:    -7.604      3.962      4.983
REMARK INTER + INTRA:         -14.704
REMARK INTER:                 -13.800
REMARK INTRA:                  -0.904
REMARK UNBOUND:                -1.544
REMARK  Name = 
REMARK  14 active torsions:
REMARK  status: ('A' for Active; 'I' for Inactive)
REMARK    1  A    between atoms: C_3  and  C_14
REMARK    2  A    between atoms: C_5  and  C_7
REMARK    3  A    between atoms: C_14  and  N_15
REMARK    4  A    between atoms: N_15  and  C_16
REMARK    5  A    between atoms: C_16  and  C_17
REMARK    6  A    between atoms: C_17  and  C_18
REMARK    7  A    between atoms: C_18  and  C_19
REMARK    8  A    between atoms: C_19  and  S_20
REMARK    9  A    between atoms: S_20  and  C_21
REMARK   10  A    between atoms: C_21  and  C_22
REMARK   11  A    between atoms: C_23  and  O_38
REMARK   12  A    between atoms: C_24  and  O_37
REMARK   13  A    between atoms: C_25  and  N_27
REMARK   14  A    between atoms: C_35  and  N_36
REMARK                            x       y       z     vdW  Elec       q    Type
REMARK                         _______ _______ _______ _____ _____    ______ ____
ROOT
ATOM      1  C   UNL     1      -2.546  11.785 -32.249  1.00  0.00    +0.103 C 
ENDROOT
BRANCH   1   2
ATOM      2  C   UNL     1      -2.170  11.968 -30.774  1.00  0.00    +0.162 C 
ATOM      3  C   UNL     1      -1.198  10.953 -30.179  1.00  0.00    +0.177 C 
ATOM      4  C   UNL     1      -1.404  11.176 -28.686  1.00  0.00    +0.195 C 
ATOM      5  C   UNL     1      -2.879  11.597 -28.594  1.00  0.00    +0.253 C 
ATOM      6  O   UNL     1      -3.330  11.955 -29.923  1.00  0.00    -0.347 OA
BRANCH   5   7
ATOM      7  N   UNL     1      -3.806  10.625 -28.057  1.00  0.00    -0.286 N 
ATOM      8  C   UNL     1      -4.336  10.674 -26.791  1.00  0.00    +0.203 A 
ATOM      9  N   UNL     1      -5.169   9.683 -26.564  1.00  0.00    -0.231 NA
ATOM     10  C   UNL     1      -5.191   8.966 -27.743  1.00  0.00    +0.147 A 
ATOM     11  C   UNL     1      -4.344   9.536 -28.681  1.00  0.00    +0.167 A 
ATOM     12  N   UNL     1      -4.115   9.098 -29.930  1.00  0.00    -0.216 NA
ATOM     13  C   UNL     1      -4.843   7.995 -30.199  1.00  0.00    +0.225 A 
ATOM     14  N   UNL     1      -5.700   7.338 -29.389  1.00  0.00    -0.219 NA
ATOM     15  C   UNL     1      -5.891   7.813 -28.137  1.00  0.00    +0.147 A 
BRANCH  15  16
ATOM     16  N   UNL     1      -6.764   7.145 -27.311  1.00  0.00    -0.341 N 
ATOM     17  H   UNL     1      -7.569   7.634 -26.946  1.00  0.00    +0.144 HD
ATOM     18  H   UNL     1      -6.580   6.176 -27.105  1.00  0.00    +0.144 HD
ENDBRANCH  15  16
ENDBRANCH   5   7
BRANCH   4  19
ATOM     19  O   UNL     1      -0.554  12.257 -28.253  1.00  0.00    -0.385 OA
ATOM     20  H   UNL     1      -1.080  12.728 -27.570  1.00  0.00    +0.210 HD
ENDBRANCH   4  19
BRANCH   3  21
ATOM     21  O   UNL     1       0.159  11.196 -30.545  1.00  0.00    -0.386 OA
ATOM     22  H   UNL     1       0.350  12.125 -30.314  1.00  0.00    +0.210 HD
ENDBRANCH   3  21
ENDBRANCH   1   2
BRANCH   1  23
ATOM     23  S   UNL     1      -4.271  12.187 -32.713  1.00  0.00    -0.158 S 
BRANCH  23  24
ATOM     24  C   UNL     1      -4.056  13.865 -33.400  1.00  0.00    +0.069 C 
BRANCH  24  25
ATOM     25  C   UNL     1      -2.731  14.511 -32.995  1.00  0.00    +0.012 C 
BRANCH  25  26
ATOM     26  C   UNL     1      -2.887  15.738 -32.087  1.00  0.00    +0.016 C 
BRANCH  26  27
ATOM     27  C   UNL     1      -3.335  16.987 -32.855  1.00  0.00    +0.081 C 
BRANCH  27  28
ATOM     28  N   UNL     1      -3.325  18.164 -31.983  1.00  0.00    -0.312 NA
ATOM     29  H   UNL     1      -3.022  17.883 -31.051  1.00  0.00    +0.122 HD
BRANCH  28  30
ATOM     30  C   UNL     1      -2.423  19.211 -32.473  1.00  0.00    +0.116 C 
BRANCH  30  33
ATOM     31  C   UNL     1      -4.145  22.533 -33.191  1.00  0.00    +0.001 A 
ATOM     32  C   UNL     1      -3.660  21.235 -33.345  1.00  0.00    +0.005 A 
ATOM     33  C   UNL     1      -2.966  20.611 -32.302  1.00  0.00    -0.033 A 
ATOM     34  C   UNL     1      -2.755  21.322 -31.107  1.00  0.00    +0.013 A 
ATOM     35  C   UNL     1      -3.239  22.629 -30.929  1.00  0.00    -0.018 A 
ATOM     36  C   UNL     1      -3.938  23.222 -31.994  1.00  0.00    +0.008 A 
BRANCH  35  37
ATOM     37  C   UNL     1      -3.022  23.354 -29.667  1.00  0.00    -0.018 A 
ATOM     38  C   UNL     1      -3.291  22.746 -28.427  1.00  0.00    +0.010 A 
ATOM     39  C   UNL     1      -3.086  23.433 -27.226  1.00  0.00    +0.020 A 
ATOM     40  C   UNL     1      -2.610  24.740 -27.251  1.00  0.00    +0.041 A 
ATOM     41  C   UNL     1      -2.337  25.366 -28.464  1.00  0.00    +0.020 A 
ATOM     42  C   UNL     1      -2.543  24.676 -29.663  1.00  0.00    +0.010 A 
ATOM     43 CL   UNL     1      -2.356  25.587 -25.775  1.00  0.00    -0.084 Cl
ENDBRANCH  35  37
ENDBRANCH  30  33
ENDBRANCH  28  30
ENDBRANCH  27  28
ENDBRANCH  26  27
ENDBRANCH  25  26
ENDBRANCH  24  25
ENDBRANCH  23  24
ENDBRANCH   1  23
TORSDOF 14
ENDMDL
