MODEL 1
REMARK VINA RESULT:    -8.225      0.000      0.000
REMARK INTER + INTRA:         -15.603
REMARK INTER:                 -14.235
REMARK INTRA:                  -1.368
REMARK UNBOUND:                -1.368
REMARK  Name = 
REMARK  14 active torsions:
REMARK  status: ('A' for Active; 'I' for Inactive)
REMARK    1  A    between atoms: C_3  and  C_14
REMARK    2  A    between atoms: C_5  and  C_7
REMARK    3  A    between atoms: C_14  and  N_15
REMARK    4  A    between atoms: N_15  and  C_16
REMARK    5  A    between atoms: C_16  and  C_17
REMARK    6  A    between atoms: C_17  and  C_18
REMARK    7  A    between atoms: C_18  and  C_19
REMARK    8  A    between atoms: C_19  and  S_20
REMARK    9  A    between atoms: S_20  and  C_21
REMARK   10  A    between atoms: C_21  and  C_22
REMARK   11  A    between atoms: C_23  and  O_38
REMARK   12  A    between atoms: C_24  and  O_37
REMARK   13  A    between atoms: C_25  and  N_27
REMARK   14  A    between atoms: C_35  and  N_36
REMARK                            x       y       z     vdW  Elec       q    Type
REMARK                         _______ _______ _______ _____ _____    ______ ____
ROOT
ATOM      1  C   UNL     1      -3.172   9.015 -30.077  1.00  0.00    +0.103 C 
ENDROOT
BRANCH   1   2
ATOM      2  C   UNL     1      -4.225   8.271 -29.248  1.00  0.00    +0.162 C 
ATOM      3  C   UNL     1      -5.309   9.118 -28.589  1.00  0.00    +0.177 C 
ATOM      4  C   UNL     1      -5.865   8.148 -27.555  1.00  0.00    +0.195 C 
ATOM      5  C   UNL     1      -4.644   7.292 -27.185  1.00  0.00    +0.253 C 
ATOM      6  O   UNL     1      -3.625   7.501 -28.192  1.00  0.00    -0.347 OA
BRANCH   5   7
ATOM      7  N   UNL     1      -4.046   7.529 -25.890  1.00  0.00    -0.286 N 
ATOM      8  C   UNL     1      -2.900   8.258 -25.686  1.00  0.00    +0.203 A 
ATOM      9  N   UNL     1      -2.584   8.340 -24.412  1.00  0.00    -0.231 NA
ATOM     10  C   UNL     1      -3.582   7.646 -23.759  1.00  0.00    +0.147 A 
ATOM     11  C   UNL     1      -4.497   7.130 -24.664  1.00  0.00    +0.167 A 
ATOM     12  N   UNL     1      -5.587   6.398 -24.379  1.00  0.00    -0.216 NA
ATOM     13  C   UNL     1      -5.715   6.217 -23.049  1.00  0.00    +0.225 A 
ATOM     14  N   UNL     1      -4.909   6.658 -22.061  1.00  0.00    -0.219 NA
ATOM     15  C   UNL     1      -3.819   7.384 -22.399  1.00  0.00    +0.147 A 
BRANCH  15  16
ATOM     16  N   UNL     1      -2.995   7.833 -21.393  1.00  0.00    -0.341 N 
ATOM     17  H   UNL     1      -2.430   7.167 -20.885  1.00  0.00    +0.144 HD
ATOM     18  H   UNL     1      -2.969   8.821 -21.201  1.00  0.00    +0.144 HD
ENDBRANCH  15  16
ENDBRANCH   5   7
BRANCH   4  19
ATOM     19  O   UNL     1      -6.873   7.327 -28.178  1.00  0.00    -0.385 OA
ATOM     20  H   UNL     1      -6.619   7.296 -29.125  1.00  0.00    +0.210 HD
ENDBRANCH   4  19
BRANCH   3  21
ATOM     21  O   UNL     1      -6.329   9.529 -29.499  1.00  0.00    -0.386 OA
ATOM     22  H   UNL     1      -6.341  10.506 -29.483  1.00  0.00    +0.210 HD
ENDBRANCH   3  21
ENDBRANCH   1   2
BRANCH   1  23
ATOM     23  S   UNL     1      -2.416  10.495 -29.309  1.00  0.00    -0.158 S 
BRANCH  23  24
ATOM     24  C   UNL     1      -2.569  11.701 -30.672  1.00  0.00    +0.069 C 
BRANCH  24  25
ATOM     25  C   UNL     1      -3.882  12.484 -30.632  1.00  0.00    +0.012 C 
BRANCH  25  26
ATOM     26  C   UNL     1      -4.093  13.409 -31.837  1.00  0.00    +0.016 C 
BRANCH  26  27
ATOM     27  C   UNL     1      -3.303  12.959 -33.072  1.00  0.00    +0.081 C 
BRANCH  27  28
ATOM     28  N   UNL     1      -2.949  14.108 -33.908  1.00  0.00    -0.312 NA
ATOM     29  H   UNL     1      -3.238  13.919 -34.868  1.00  0.00    +0.122 HD
BRANCH  28  30
ATOM     30  C   UNL     1      -3.597  15.343 -33.459  1.00  0.00    +0.116 C 
BRANCH  30  33
ATOM     31  C   UNL     1      -0.371  17.107 -32.457  1.00  0.00    +0.001 A 
ATOM     32  C   UNL     1      -1.262  16.125 -32.887  1.00  0.00    +0.005 A 
ATOM     33  C   UNL     1      -2.627  16.412 -33.011  1.00  0.00    -0.033 A 
ATOM     34  C   UNL     1      -3.080  17.701 -32.679  1.00  0.00    +0.013 A 
ATOM     35  C   UNL     1      -2.199  18.708 -32.249  1.00  0.00    -0.018 A 
ATOM     36  C   UNL     1      -0.836  18.386 -32.143  1.00  0.00    +0.008 A 
BRANCH  35  37
ATOM     37  C   UNL     1      -2.689  20.056 -31.920  1.00  0.00    -0.018 A 
ATOM     38  C   UNL     1      -2.558  20.577 -30.620  1.00  0.00    +0.010 A 
ATOM     39  C   UNL     1      -3.024  21.858 -30.305  1.00  0.00    +0.020 A 
ATOM     40  C   UNL     1      -3.629  22.633 -31.288  1.00  0.00    +0.041 A 
ATOM     41  C   UNL     1      -3.773  22.141 -32.583  1.00  0.00    +0.020 A 
ATOM     42  C   UNL     1      -3.305  20.860 -32.894  1.00  0.00    +0.010 A 
ATOM     43 CL   UNL     1      -4.202  24.210 -30.903  1.00  0.00    -0.084 Cl
ENDBRANCH  35  37
ENDBRANCH  30  33
ENDBRANCH  28  30
ENDBRANCH  27  28
ENDBRANCH  26  27
ENDBRANCH  25  26
ENDBRANCH  24  25
ENDBRANCH  23  24
ENDBRANCH   1  23
TORSDOF 14
ENDMDL
MODEL 2
REMARK VINA RESULT:    -8.217      6.696      8.475
REMARK INTER + INTRA:         -15.590
REMARK INTER:                 -14.000
REMARK INTRA:                  -1.590
REMARK UNBOUND:                -1.368
REMARK  Name = 
REMARK  14 active torsions:
REMARK  status: ('A' for Active; 'I' for Inactive)
REMARK    1  A    between atoms: C_3  and  C_14
REMARK    2  A    between atoms: C_5  and  C_7
REMARK    3  A    between atoms: C_14  and  N_15
REMARK    4  A    between atoms: N_15  and  C_16
REMARK    5  A    between atoms: C_16  and  C_17
REMARK    6  A    between atoms: C_17  and  C_18
REMARK    7  A    between atoms: C_18  and  C_19
REMARK    8  A    between atoms: C_19  and  S_20
REMARK    9  A    between atoms: S_20  and  C_21
REMARK   10  A    between atoms: C_21  and  C_22
REMARK   11  A    between atoms: C_23  and  O_38
REMARK   12  A    between atoms: C_24  and  O_37
REMARK   13  A    between atoms: C_25  and  N_27
REMARK   14  A    between atoms: C_35  and  N_36
REMARK                            x       y       z     vdW  Elec       q    Type
REMARK                         _______ _______ _______ _____ _____    ______ ____
ROOT
ATOM      1  C   UNL     1       0.948  16.064 -30.549  1.00  0.00    +0.103 C 
ENDROOT
BRANCH   1   2
ATOM      2  C   UNL     1       0.408  14.655 -30.818  1.00  0.00    +0.162 C 
ATOM      3  C   UNL     1       0.867  13.975 -32.105  1.00  0.00    +0.177 C 
ATOM      4  C   UNL     1      -0.160  12.857 -32.238  1.00  0.00    +0.195 C 
ATOM      5  C   UNL     1      -1.422  13.462 -31.605  1.00  0.00    +0.253 C 
ATOM      6  O   UNL     1      -1.029  14.631 -30.846  1.00  0.00    -0.347 OA
BRANCH   5   7
ATOM      7  N   UNL     1      -2.485  13.851 -32.504  1.00  0.00    -0.286 N 
ATOM      8  C   UNL     1      -2.988  15.125 -32.607  1.00  0.00    +0.203 A 
ATOM      9  N   UNL     1      -3.933  15.213 -33.517  1.00  0.00    -0.231 NA
ATOM     10  C   UNL     1      -4.036  13.940 -34.039  1.00  0.00    +0.147 A 
ATOM     11  C   UNL     1      -3.146  13.078 -33.417  1.00  0.00    +0.167 A 
ATOM     12  N   UNL     1      -2.981  11.769 -33.669  1.00  0.00    -0.216 NA
ATOM     13  C   UNL     1      -3.805  11.358 -34.654  1.00  0.00    +0.225 A 
ATOM     14  N   UNL     1      -4.714  12.080 -35.343  1.00  0.00    -0.219 NA
ATOM     15  C   UNL     1      -4.849  13.393 -35.046  1.00  0.00    +0.147 A 
BRANCH  15  16
ATOM     16  N   UNL     1      -5.776  14.129 -35.746  1.00  0.00    -0.341 N 
ATOM     17  H   UNL     1      -5.945  13.912 -36.718  1.00  0.00    +0.144 HD
ATOM     18  H   UNL     1      -6.273  14.858 -35.261  1.00  0.00    +0.144 HD
ENDBRANCH  15  16
ENDBRANCH   5   7
BRANCH   4  19
ATOM     19  O   UNL     1       0.283  11.721 -31.469  1.00  0.00    -0.385 OA
ATOM     20  H   UNL     1       1.083  11.399 -31.939  1.00  0.00    +0.210 HD
ENDBRANCH   4  19
BRANCH   3  21
ATOM     21  O   UNL     1       2.188  13.442 -32.017  1.00  0.00    -0.386 OA
ATOM     22  H   UNL     1       2.102  12.539 -31.656  1.00  0.00    +0.210 HD
ENDBRANCH   3  21
ENDBRANCH   1   2
BRANCH   1  23
ATOM     23  S   UNL     1       2.349  16.620 -31.589  1.00  0.00    -0.158 S 
BRANCH  23  24
ATOM     24  C   UNL     1       2.241  18.429 -31.367  1.00  0.00    +0.069 C 
BRANCH  24  25
ATOM     25  C   UNL     1       0.810  18.960 -31.474  1.00  0.00    +0.012 C 
BRANCH  25  26
ATOM     26  C   UNL     1       0.247  18.951 -32.900  1.00  0.00    +0.016 C 
BRANCH  26  27
ATOM     27  C   UNL     1      -0.880  17.928 -33.083  1.00  0.00    +0.081 C 
BRANCH  27  28
ATOM     28  N   UNL     1      -2.152  18.600 -33.360  1.00  0.00    -0.312 NA
ATOM     29  H   UNL     1      -2.754  17.966 -33.884  1.00  0.00    +0.122 HD
BRANCH  28  30
ATOM     30  C   UNL     1      -2.848  18.999 -32.133  1.00  0.00    +0.116 C 
BRANCH  30  33
ATOM     31  C   UNL     1      -3.991  22.489 -33.152  1.00  0.00    +0.001 A 
ATOM     32  C   UNL     1      -3.697  21.127 -33.202  1.00  0.00    +0.005 A 
ATOM     33  C   UNL     1      -3.185  20.472 -32.076  1.00  0.00    -0.033 A 
ATOM     34  C   UNL     1      -2.961  21.214 -30.903  1.00  0.00    +0.013 A 
ATOM     35  C   UNL     1      -3.255  22.587 -30.829  1.00  0.00    -0.018 A 
ATOM     36  C   UNL     1      -3.774  23.210 -31.976  1.00  0.00    +0.008 A 
BRANCH  35  37
ATOM     37  C   UNL     1      -3.028  23.346 -29.589  1.00  0.00    -0.018 A 
ATOM     38  C   UNL     1      -3.284  22.772 -28.331  1.00  0.00    +0.010 A 
ATOM     39  C   UNL     1      -3.069  23.492 -27.151  1.00  0.00    +0.020 A 
ATOM     40  C   UNL     1      -2.597  24.799 -27.216  1.00  0.00    +0.041 A 
ATOM     41  C   UNL     1      -2.337  25.392 -28.449  1.00  0.00    +0.020 A 
ATOM     42  C   UNL     1      -2.552  24.669 -29.626  1.00  0.00    +0.010 A 
ATOM     43 CL   UNL     1      -2.332  25.686 -25.766  1.00  0.00    -0.084 Cl
ENDBRANCH  35  37
ENDBRANCH  30  33
ENDBRANCH  28  30
ENDBRANCH  27  28
ENDBRANCH  26  27
ENDBRANCH  25  26
ENDBRANCH  24  25
ENDBRANCH  23  24
ENDBRANCH   1  23
TORSDOF 14
ENDMDL
MODEL 3
REMARK VINA RESULT:    -8.144      5.622     12.391
REMARK INTER + INTRA:         -15.463
REMARK INTER:                 -14.054
REMARK INTRA:                  -1.409
REMARK UNBOUND:                -1.368
REMARK  Name = 
REMARK  14 active torsions:
REMARK  status: ('A' for Active; 'I' for Inactive)
REMARK    1  A    between atoms: C_3  and  C_14
REMARK    2  A    between atoms: C_5  and  C_7
REMARK    3  A    between atoms: C_14  and  N_15
REMARK    4  A    between atoms: N_15  and  C_16
REMARK    5  A    between atoms: C_16  and  C_17
REMARK    6  A    between atoms: C_17  and  C_18
REMARK    7  A    between atoms: C_18  and  C_19
REMARK    8  A    between atoms: C_19  and  S_20
REMARK    9  A    between atoms: S_20  and  C_21
REMARK   10  A    between atoms: C_21  and  C_22
REMARK   11  A    between atoms: C_23  and  O_38
REMARK   12  A    between atoms: C_24  and  O_37
REMARK   13  A    between atoms: C_25  and  N_27
REMARK   14  A    between atoms: C_35  and  N_36
REMARK                            x       y       z     vdW  Elec       q    Type
REMARK                         _______ _______ _______ _____ _____    ______ ____
ROOT
ATOM      1  C   UNL     1      -2.873  15.622 -31.358  1.00  0.00    +0.103 C 
ENDROOT
BRANCH   1   2
ATOM      2  C   UNL     1      -2.383  16.687 -32.346  1.00  0.00    +0.162 C 
ATOM      3  C   UNL     1      -0.982  17.246 -32.119  1.00  0.00    +0.177 C 
ATOM      4  C   UNL     1      -1.021  18.512 -32.965  1.00  0.00    +0.195 C 
ATOM      5  C   UNL     1      -2.493  18.942 -32.886  1.00  0.00    +0.253 C 
ATOM      6  O   UNL     1      -3.264  17.822 -32.386  1.00  0.00    -0.347 OA
BRANCH   5   7
ATOM      7  N   UNL     1      -2.797  20.094 -32.066  1.00  0.00    -0.286 N 
ATOM      8  C   UNL     1      -2.603  20.153 -30.708  1.00  0.00    +0.203 A 
ATOM      9  N   UNL     1      -2.939  21.323 -30.210  1.00  0.00    -0.231 NA
ATOM     10  C   UNL     1      -3.355  22.060 -31.299  1.00  0.00    +0.147 A 
ATOM     11  C   UNL     1      -3.278  21.310 -32.462  1.00  0.00    +0.167 A 
ATOM     12  N   UNL     1      -3.609  21.708 -33.701  1.00  0.00    -0.216 NA
ATOM     13  C   UNL     1      -4.034  22.987 -33.702  1.00  0.00    +0.225 A 
ATOM     14  N   UNL     1      -4.159  23.831 -32.656  1.00  0.00    -0.219 NA
ATOM     15  C   UNL     1      -3.821  23.380 -31.426  1.00  0.00    +0.147 A 
BRANCH  15  16
ATOM     16  N   UNL     1      -3.949  24.238 -30.358  1.00  0.00    -0.341 N 
ATOM     17  H   UNL     1      -3.658  25.200 -30.462  1.00  0.00    +0.144 HD
ATOM     18  H   UNL     1      -4.346  23.882 -29.504  1.00  0.00    +0.144 HD
ENDBRANCH  15  16
ENDBRANCH   5   7
BRANCH   4  19
ATOM     19  O   UNL     1      -0.675  18.177 -34.324  1.00  0.00    -0.385 OA
ATOM     20  H   UNL     1      -1.108  18.870 -34.868  1.00  0.00    +0.210 HD
ENDBRANCH   4  19
BRANCH   3  21
ATOM     21  O   UNL     1       0.051  16.369 -32.565  1.00  0.00    -0.386 OA
ATOM     22  H   UNL     1      -0.106  15.508 -32.132  1.00  0.00    +0.210 HD
ENDBRANCH   3  21
ENDBRANCH   1   2
BRANCH   1  23
ATOM     23  S   UNL     1      -1.977  14.025 -31.360  1.00  0.00    -0.158 S 
BRANCH  23  24
ATOM     24  C   UNL     1      -3.363  12.858 -31.131  1.00  0.00    +0.069 C 
BRANCH  24  25
ATOM     25  C   UNL     1      -3.295  11.657 -32.076  1.00  0.00    +0.012 C 
BRANCH  25  26
ATOM     26  C   UNL     1      -3.674  11.983 -33.525  1.00  0.00    +0.016 C 
BRANCH  26  27
ATOM     27  C   UNL     1      -4.685  10.988 -34.109  1.00  0.00    +0.081 C 
BRANCH  27  28
ATOM     28  N   UNL     1      -5.605  10.515 -33.074  1.00  0.00    -0.312 NA
ATOM     29  H   UNL     1      -6.504  10.981 -33.192  1.00  0.00    +0.122 HD
BRANCH  28  30
ATOM     30  C   UNL     1      -5.818   9.066 -33.140  1.00  0.00    +0.116 C 
BRANCH  30  33
ATOM     31  C   UNL     1      -4.736   6.281 -30.775  1.00  0.00    +0.001 A 
ATOM     32  C   UNL     1      -5.109   6.961 -31.933  1.00  0.00    +0.005 A 
ATOM     33  C   UNL     1      -5.396   8.330 -31.889  1.00  0.00    -0.033 A 
ATOM     34  C   UNL     1      -5.315   9.000 -30.655  1.00  0.00    +0.013 A 
ATOM     35  C   UNL     1      -4.936   8.335 -29.476  1.00  0.00    -0.018 A 
ATOM     36  C   UNL     1      -4.649   6.963 -29.559  1.00  0.00    +0.008 A 
BRANCH  35  37
ATOM     37  C   UNL     1      -4.842   9.055 -28.196  1.00  0.00    -0.018 A 
ATOM     38  C   UNL     1      -5.298   8.469 -27.001  1.00  0.00    +0.010 A 
ATOM     39  C   UNL     1      -5.210   9.152 -25.783  1.00  0.00    +0.020 A 
ATOM     40  C   UNL     1      -4.666  10.431 -25.747  1.00  0.00    +0.041 A 
ATOM     41  C   UNL     1      -4.209  11.035 -26.915  1.00  0.00    +0.020 A 
ATOM     42  C   UNL     1      -4.297  10.349 -28.131  1.00  0.00    +0.010 A 
ATOM     43 CL   UNL     1      -4.556  11.273 -24.249  1.00  0.00    -0.084 Cl
ENDBRANCH  35  37
ENDBRANCH  30  33
ENDBRANCH  28  30
ENDBRANCH  27  28
ENDBRANCH  26  27
ENDBRANCH  25  26
ENDBRANCH  24  25
ENDBRANCH  23  24
ENDBRANCH   1  23
TORSDOF 14
ENDMDL
MODEL 4
REMARK VINA RESULT:    -8.090      7.677     13.192
REMARK INTER + INTRA:         -15.370
REMARK INTER:                 -14.259
REMARK INTRA:                  -1.110
REMARK UNBOUND:                -1.368
REMARK  Name = 
REMARK  14 active torsions:
REMARK  status: ('A' for Active; 'I' for Inactive)
REMARK    1  A    between atoms: C_3  and  C_14
REMARK    2  A    between atoms: C_5  and  C_7
REMARK    3  A    between atoms: C_14  and  N_15
REMARK    4  A    between atoms: N_15  and  C_16
REMARK    5  A    between atoms: C_16  and  C_17
REMARK    6  A    between atoms: C_17  and  C_18
REMARK    7  A    between atoms: C_18  and  C_19
REMARK    8  A    between atoms: C_19  and  S_20
REMARK    9  A    between atoms: S_20  and  C_21
REMARK   10  A    between atoms: C_21  and  C_22
REMARK   11  A    between atoms: C_23  and  O_38
REMARK   12  A    between atoms: C_24  and  O_37
REMARK   13  A    between atoms: C_25  and  N_27
REMARK   14  A    between atoms: C_35  and  N_36
REMARK                            x       y       z     vdW  Elec       q    Type
REMARK                         _______ _______ _______ _____ _____    ______ ____
ROOT
ATOM      1  C   UNL     1      -2.974  15.556 -31.503  1.00  0.00    +0.103 C 
ENDROOT
BRANCH   1   2
ATOM      2  C   UNL     1      -2.445  16.632 -32.458  1.00  0.00    +0.162 C 
ATOM      3  C   UNL     1      -1.037  17.157 -32.193  1.00  0.00    +0.177 C 
ATOM      4  C   UNL     1      -1.035  18.443 -33.010  1.00  0.00    +0.195 C 
ATOM      5  C   UNL     1      -2.500  18.902 -32.947  1.00  0.00    +0.253 C 
ATOM      6  O   UNL     1      -3.302  17.787 -32.486  1.00  0.00    -0.347 OA
BRANCH   5   7
ATOM      7  N   UNL     1      -2.795  20.040 -32.105  1.00  0.00    -0.286 N 
ATOM      8  C   UNL     1      -2.610  20.069 -30.745  1.00  0.00    +0.203 A 
ATOM      9  N   UNL     1      -2.934  21.232 -30.225  1.00  0.00    -0.231 NA
ATOM     10  C   UNL     1      -3.333  21.998 -31.301  1.00  0.00    +0.147 A 
ATOM     11  C   UNL     1      -3.257  21.270 -32.479  1.00  0.00    +0.167 A 
ATOM     12  N   UNL     1      -3.574  21.698 -33.712  1.00  0.00    -0.216 NA
ATOM     13  C   UNL     1      -3.982  22.983 -33.690  1.00  0.00    +0.225 A 
ATOM     14  N   UNL     1      -4.103  23.806 -32.627  1.00  0.00    -0.219 NA
ATOM     15  C   UNL     1      -3.780  23.326 -31.404  1.00  0.00    +0.147 A 
BRANCH  15  16
ATOM     16  N   UNL     1      -3.905  24.163 -30.320  1.00  0.00    -0.341 N 
ATOM     17  H   UNL     1      -4.508  23.893 -29.556  1.00  0.00    +0.144 HD
ATOM     18  H   UNL     1      -3.375  25.020 -30.315  1.00  0.00    +0.144 HD
ENDBRANCH  15  16
ENDBRANCH   5   7
BRANCH   4  19
ATOM     19  O   UNL     1      -0.673  18.132 -34.371  1.00  0.00    -0.385 OA
ATOM     20  H   UNL     1      -0.928  17.192 -34.487  1.00  0.00    +0.210 HD
ENDBRANCH   4  19
BRANCH   3  21
ATOM     21  O   UNL     1      -0.015  16.269 -32.643  1.00  0.00    -0.386 OA
ATOM     22  H   UNL     1      -0.391  15.765 -33.390  1.00  0.00    +0.210 HD
ENDBRANCH   3  21
ENDBRANCH   1   2
BRANCH   1  23
ATOM     23  S   UNL     1      -2.420  13.839 -31.813  1.00  0.00    -0.158 S 
BRANCH  23  24
ATOM     24  C   UNL     1      -3.995  13.055 -32.301  1.00  0.00    +0.069 C 
BRANCH  24  25
ATOM     25  C   UNL     1      -4.122  12.860 -33.813  1.00  0.00    +0.012 C 
BRANCH  25  26
ATOM     26  C   UNL     1      -4.669  11.486 -34.220  1.00  0.00    +0.016 C 
BRANCH  26  27
ATOM     27  C   UNL     1      -3.907  10.874 -35.401  1.00  0.00    +0.081 C 
BRANCH  27  28
ATOM     28  N   UNL     1      -2.533  10.545 -35.019  1.00  0.00    -0.312 NA
ATOM     29  H   UNL     1      -2.296  11.054 -34.167  1.00  0.00    +0.122 HD
BRANCH  28  30
ATOM     30  C   UNL     1      -2.351   9.111 -34.774  1.00  0.00    +0.116 C 
BRANCH  30  33
ATOM     31  C   UNL     1      -2.935   6.266 -37.241  1.00  0.00    +0.001 A 
ATOM     32  C   UNL     1      -2.978   7.042 -36.084  1.00  0.00    +0.005 A 
ATOM     33  C   UNL     1      -2.322   8.277 -36.034  1.00  0.00    -0.033 A 
ATOM     34  C   UNL     1      -1.609   8.711 -37.166  1.00  0.00    +0.013 A 
ATOM     35  C   UNL     1      -1.556   7.948 -38.345  1.00  0.00    -0.018 A 
ATOM     36  C   UNL     1      -2.232   6.717 -38.361  1.00  0.00    +0.008 A 
BRANCH  35  37
ATOM     37  C   UNL     1      -0.817   8.424 -39.526  1.00  0.00    -0.018 A 
ATOM     38  C   UNL     1       0.472   8.972 -39.400  1.00  0.00    +0.010 A 
ATOM     39  C   UNL     1       1.175   9.426 -40.521  1.00  0.00    +0.020 A 
ATOM     40  C   UNL     1       0.595   9.338 -41.782  1.00  0.00    +0.041 A 
ATOM     41  C   UNL     1      -0.680   8.802 -41.934  1.00  0.00    +0.020 A 
ATOM     42  C   UNL     1      -1.380   8.348 -40.812  1.00  0.00    +0.010 A 
ATOM     43 CL   UNL     1       1.459   9.896 -43.162  1.00  0.00    -0.084 Cl
ENDBRANCH  35  37
ENDBRANCH  30  33
ENDBRANCH  28  30
ENDBRANCH  27  28
ENDBRANCH  26  27
ENDBRANCH  25  26
ENDBRANCH  24  25
ENDBRANCH  23  24
ENDBRANCH   1  23
TORSDOF 14
ENDMDL
MODEL 5
REMARK VINA RESULT:    -7.985      5.867      7.969
REMARK INTER + INTRA:         -15.188
REMARK INTER:                 -14.371
REMARK INTRA:                  -0.816
REMARK UNBOUND:                -1.368
REMARK  Name = 
REMARK  14 active torsions:
REMARK  status: ('A' for Active; 'I' for Inactive)
REMARK    1  A    between atoms: C_3  and  C_14
REMARK    2  A    between atoms: C_5  and  C_7
REMARK    3  A    between atoms: C_14  and  N_15
REMARK    4  A    between atoms: N_15  and  C_16
REMARK    5  A    between atoms: C_16  and  C_17
REMARK    6  A    between atoms: C_17  and  C_18
REMARK    7  A    between atoms: C_18  and  C_19
REMARK    8  A    between atoms: C_19  and  S_20
REMARK    9  A    between atoms: S_20  and  C_21
REMARK   10  A    between atoms: C_21  and  C_22
REMARK   11  A    between atoms: C_23  and  O_38
REMARK   12  A    between atoms: C_24  and  O_37
REMARK   13  A    between atoms: C_25  and  N_27
REMARK   14  A    between atoms: C_35  and  N_36
REMARK                            x       y       z     vdW  Elec       q    Type
REMARK                         _______ _______ _______ _____ _____    ______ ____
ROOT
ATOM      1  C   UNL     1      -3.111  14.310 -32.584  1.00  0.00    +0.103 C 
ENDROOT
BRANCH   1   2
ATOM      2  C   UNL     1      -4.112  13.151 -32.518  1.00  0.00    +0.162 C 
ATOM      3  C   UNL     1      -3.793  12.017 -31.548  1.00  0.00    +0.177 C 
ATOM      4  C   UNL     1      -4.713  10.915 -32.057  1.00  0.00    +0.195 C 
ATOM      5  C   UNL     1      -4.793  11.194 -33.566  1.00  0.00    +0.253 C 
ATOM      6  O   UNL     1      -4.298  12.535 -33.804  1.00  0.00    -0.347 OA
BRANCH   5   7
ATOM      7  N   UNL     1      -4.073  10.293 -34.438  1.00  0.00    -0.286 N 
ATOM      8  C   UNL     1      -4.619   9.176 -35.023  1.00  0.00    +0.203 A 
ATOM      9  N   UNL     1      -3.756   8.545 -35.788  1.00  0.00    -0.231 NA
ATOM     10  C   UNL     1      -2.602   9.297 -35.708  1.00  0.00    +0.147 A 
ATOM     11  C   UNL     1      -2.780  10.385 -34.868  1.00  0.00    +0.167 A 
ATOM     12  N   UNL     1      -1.867  11.319 -34.555  1.00  0.00    -0.216 NA
ATOM     13  C   UNL     1      -0.699  11.086 -35.188  1.00  0.00    +0.225 A 
ATOM     14  N   UNL     1      -0.386  10.076 -36.026  1.00  0.00    -0.219 NA
ATOM     15  C   UNL     1      -1.337   9.155 -36.303  1.00  0.00    +0.147 A 
BRANCH  15  16
ATOM     16  N   UNL     1      -1.019   8.124 -37.157  1.00  0.00    -0.341 N 
ATOM     17  H   UNL     1      -1.739   7.469 -37.426  1.00  0.00    +0.144 HD
ATOM     18  H   UNL     1      -0.075   8.063 -37.501  1.00  0.00    +0.144 HD
ENDBRANCH  15  16
ENDBRANCH   5   7
BRANCH   4  19
ATOM     19  O   UNL     1      -6.013  11.076 -31.455  1.00  0.00    -0.385 OA
ATOM     20  H   UNL     1      -5.877  10.855 -30.509  1.00  0.00    +0.210 HD
ENDBRANCH   4  19
BRANCH   3  21
ATOM     21  O   UNL     1      -4.091  12.341 -30.191  1.00  0.00    -0.386 OA
ATOM     22  H   UNL     1      -3.369  12.916 -29.875  1.00  0.00    +0.210 HD
ENDBRANCH   3  21
ENDBRANCH   1   2
BRANCH   1  23
ATOM     23  S   UNL     1      -1.667  14.213 -31.462  1.00  0.00    -0.158 S 
BRANCH  23  24
ATOM     24  C   UNL     1      -0.620  15.548 -32.139  1.00  0.00    +0.069 C 
BRANCH  24  25
ATOM     25  C   UNL     1      -1.409  16.564 -32.966  1.00  0.00    +0.012 C 
BRANCH  25  26
ATOM     26  C   UNL     1      -0.648  17.866 -33.244  1.00  0.00    +0.016 C 
BRANCH  26  27
ATOM     27  C   UNL     1      -0.796  18.890 -32.113  1.00  0.00    +0.081 C 
BRANCH  27  28
ATOM     28  N   UNL     1      -2.200  19.042 -31.730  1.00  0.00    -0.312 NA
ATOM     29  H   UNL     1      -2.254  19.619 -30.891  1.00  0.00    +0.122 HD
BRANCH  28  30
ATOM     30  C   UNL     1      -2.998  19.676 -32.785  1.00  0.00    +0.116 C 
BRANCH  30  33
ATOM     31  C   UNL     1      -4.225  23.256 -33.236  1.00  0.00    +0.001 A 
ATOM     32  C   UNL     1      -3.921  21.920 -33.494  1.00  0.00    +0.005 A 
ATOM     33  C   UNL     1      -3.345  21.120 -32.501  1.00  0.00    -0.033 A 
ATOM     34  C   UNL     1      -3.065  21.693 -31.247  1.00  0.00    +0.013 A 
ATOM     35  C   UNL     1      -3.367  23.036 -30.964  1.00  0.00    -0.018 A 
ATOM     36  C   UNL     1      -3.952  23.807 -31.982  1.00  0.00    +0.008 A 
BRANCH  35  37
ATOM     37  C   UNL     1      -3.081  23.615 -29.641  1.00  0.00    -0.018 A 
ATOM     38  C   UNL     1      -2.537  24.907 -29.519  1.00  0.00    +0.010 A 
ATOM     39  C   UNL     1      -2.264  25.459 -28.263  1.00  0.00    +0.020 A 
ATOM     40  C   UNL     1      -2.530  24.724 -27.113  1.00  0.00    +0.041 A 
ATOM     41  C   UNL     1      -3.066  23.442 -27.206  1.00  0.00    +0.020 A 
ATOM     42  C   UNL     1      -3.339  22.894 -28.463  1.00  0.00    +0.010 A 
ATOM     43 CL   UNL     1      -2.195  25.401 -25.567  1.00  0.00    -0.084 Cl
ENDBRANCH  35  37
ENDBRANCH  30  33
ENDBRANCH  28  30
ENDBRANCH  27  28
ENDBRANCH  26  27
ENDBRANCH  25  26
ENDBRANCH  24  25
ENDBRANCH  23  24
ENDBRANCH   1  23
TORSDOF 14
ENDMDL
MODEL 6
REMARK VINA RESULT:    -7.916      5.463      9.038
REMARK INTER + INTRA:         -15.068
REMARK INTER:                 -13.506
REMARK INTRA:                  -1.562
REMARK UNBOUND:                -1.368
REMARK  Name = 
REMARK  14 active torsions:
REMARK  status: ('A' for Active; 'I' for Inactive)
REMARK    1  A    between atoms: C_3  and  C_14
REMARK    2  A    between atoms: C_5  and  C_7
REMARK    3  A    between atoms: C_14  and  N_15
REMARK    4  A    between atoms: N_15  and  C_16
REMARK    5  A    between atoms: C_16  and  C_17
REMARK    6  A    between atoms: C_17  and  C_18
REMARK    7  A    between atoms: C_18  and  C_19
REMARK    8  A    between atoms: C_19  and  S_20
REMARK    9  A    between atoms: S_20  and  C_21
REMARK   10  A    between atoms: C_21  and  C_22
REMARK   11  A    between atoms: C_23  and  O_38
REMARK   12  A    between atoms: C_24  and  O_37
REMARK   13  A    between atoms: C_25  and  N_27
REMARK   14  A    between atoms: C_35  and  N_36
REMARK                            x       y       z     vdW  Elec       q    Type
REMARK                         _______ _______ _______ _____ _____    ______ ____
ROOT
ATOM      1  C   UNL     1      -2.994  18.233 -32.505  1.00  0.00    +0.103 C 
ENDROOT
BRANCH   1   2
ATOM      2  C   UNL     1      -2.200  17.072 -31.896  1.00  0.00    +0.162 C 
ATOM      3  C   UNL     1      -1.114  16.447 -32.767  1.00  0.00    +0.177 C 
ATOM      4  C   UNL     1      -0.870  15.128 -32.046  1.00  0.00    +0.195 C 
ATOM      5  C   UNL     1      -2.245  14.794 -31.449  1.00  0.00    +0.253 C 
ATOM      6  O   UNL     1      -3.059  15.992 -31.495  1.00  0.00    -0.347 OA
BRANCH   5   7
ATOM      7  N   UNL     1      -2.990  13.725 -32.076  1.00  0.00    -0.286 N 
ATOM      8  C   UNL     1      -3.277  13.662 -33.418  1.00  0.00    +0.203 A 
ATOM      9  N   UNL     1      -3.947  12.574 -33.731  1.00  0.00    -0.231 NA
ATOM     10  C   UNL     1      -4.086  11.894 -32.539  1.00  0.00    +0.147 A 
ATOM     11  C   UNL     1      -3.501  12.598 -31.498  1.00  0.00    +0.167 A 
ATOM     12  N   UNL     1      -3.455  12.236 -30.205  1.00  0.00    -0.216 NA
ATOM     13  C   UNL     1      -4.057  11.044 -30.014  1.00  0.00    +0.225 A 
ATOM     14  N   UNL     1      -4.662  10.255 -30.926  1.00  0.00    -0.219 NA
ATOM     15  C   UNL     1      -4.690  10.667 -32.214  1.00  0.00    +0.147 A 
BRANCH  15  16
ATOM     16  N   UNL     1      -5.307   9.864 -33.144  1.00  0.00    -0.341 N 
ATOM     17  H   UNL     1      -6.270   9.596 -33.001  1.00  0.00    +0.144 HD
ATOM     18  H   UNL     1      -4.780   9.578 -33.953  1.00  0.00    +0.144 HD
ENDBRANCH  15  16
ENDBRANCH   5   7
BRANCH   4  19
ATOM     19  O   UNL     1       0.088  15.342 -30.990  1.00  0.00    -0.385 OA
ATOM     20  H   UNL     1       0.760  15.942 -31.381  1.00  0.00    +0.210 HD
ENDBRANCH   4  19
BRANCH   3  21
ATOM     21  O   UNL     1       0.081  17.227 -32.818  1.00  0.00    -0.386 OA
ATOM     22  H   UNL     1       0.823  16.611 -32.664  1.00  0.00    +0.210 HD
ENDBRANCH   3  21
ENDBRANCH   1   2
BRANCH   1  23
ATOM     23  S   UNL     1      -2.213  19.888 -32.439  1.00  0.00    -0.158 S 
BRANCH  23  24
ATOM     24  C   UNL     1      -3.682  20.964 -32.580  1.00  0.00    +0.069 C 
BRANCH  24  25
ATOM     25  C   UNL     1      -3.456  22.166 -33.498  1.00  0.00    +0.012 C 
BRANCH  25  26
ATOM     26  C   UNL     1      -4.179  23.440 -33.045  1.00  0.00    +0.016 C 
BRANCH  26  27
ATOM     27  C   UNL     1      -4.370  23.502 -31.525  1.00  0.00    +0.081 C 
BRANCH  27  28
ATOM     28  N   UNL     1      -3.542  24.557 -30.939  1.00  0.00    -0.312 NA
ATOM     29  H   UNL     1      -4.062  25.435 -30.957  1.00  0.00    +0.122 HD
BRANCH  28  30
ATOM     30  C   UNL     1      -3.166  24.264 -29.553  1.00  0.00    +0.116 C 
BRANCH  30  33
ATOM     31  C   UNL     1       0.448  25.270 -28.881  1.00  0.00    +0.001 A 
ATOM     32  C   UNL     1      -0.932  25.343 -29.070  1.00  0.00    +0.005 A 
ATOM     33  C   UNL     1      -1.673  24.185 -29.330  1.00  0.00    -0.033 A 
ATOM     34  C   UNL     1      -0.999  22.953 -29.413  1.00  0.00    +0.013 A 
ATOM     35  C   UNL     1       0.390  22.856 -29.221  1.00  0.00    -0.018 A 
ATOM     36  C   UNL     1       1.100  24.037 -28.955  1.00  0.00    +0.008 A 
BRANCH  35  37
ATOM     37  C   UNL     1       1.077  21.556 -29.297  1.00  0.00    -0.018 A 
ATOM     38  C   UNL     1       2.309  21.350 -28.651  1.00  0.00    +0.010 A 
ATOM     39  C   UNL     1       2.964  20.116 -28.722  1.00  0.00    +0.020 A 
ATOM     40  C   UNL     1       2.394  19.073 -29.443  1.00  0.00    +0.041 A 
ATOM     41  C   UNL     1       1.176  19.250 -30.094  1.00  0.00    +0.020 A 
ATOM     42  C   UNL     1       0.524  20.485 -30.020  1.00  0.00    +0.010 A 
ATOM     43 CL   UNL     1       3.198  17.554 -29.531  1.00  0.00    -0.084 Cl
ENDBRANCH  35  37
ENDBRANCH  30  33
ENDBRANCH  28  30
ENDBRANCH  27  28
ENDBRANCH  26  27
ENDBRANCH  25  26
ENDBRANCH  24  25
ENDBRANCH  23  24
ENDBRANCH   1  23
TORSDOF 14
ENDMDL
MODEL 7
REMARK VINA RESULT:    -7.893      5.621      9.757
REMARK INTER + INTRA:         -15.029
REMARK INTER:                 -14.016
REMARK INTRA:                  -1.014
REMARK UNBOUND:                -1.368
REMARK  Name = 
REMARK  14 active torsions:
REMARK  status: ('A' for Active; 'I' for Inactive)
REMARK    1  A    between atoms: C_3  and  C_14
REMARK    2  A    between atoms: C_5  and  C_7
REMARK    3  A    between atoms: C_14  and  N_15
REMARK    4  A    between atoms: N_15  and  C_16
REMARK    5  A    between atoms: C_16  and  C_17
REMARK    6  A    between atoms: C_17  and  C_18
REMARK    7  A    between atoms: C_18  and  C_19
REMARK    8  A    between atoms: C_19  and  S_20
REMARK    9  A    between atoms: S_20  and  C_21
REMARK   10  A    between atoms: C_21  and  C_22
REMARK   11  A    between atoms: C_23  and  O_38
REMARK   12  A    between atoms: C_24  and  O_37
REMARK   13  A    between atoms: C_25  and  N_27
REMARK   14  A    between atoms: C_35  and  N_36
REMARK                            x       y       z     vdW  Elec       q    Type
REMARK                         _______ _______ _______ _____ _____    ______ ____
ROOT
ATOM      1  C   UNL     1      -2.932  18.230 -32.704  1.00  0.00    +0.103 C 
ENDROOT
BRANCH   1   2
ATOM      2  C   UNL     1      -2.224  17.068 -31.996  1.00  0.00    +0.162 C 
ATOM      3  C   UNL     1      -1.087  16.389 -32.754  1.00  0.00    +0.177 C 
ATOM      4  C   UNL     1      -0.941  15.087 -31.977  1.00  0.00    +0.195 C 
ATOM      5  C   UNL     1      -2.371  14.807 -31.489  1.00  0.00    +0.253 C 
ATOM      6  O   UNL     1      -3.144  16.023 -31.638  1.00  0.00    -0.347 OA
BRANCH   5   7
ATOM      7  N   UNL     1      -3.091  13.739 -32.147  1.00  0.00    -0.286 N 
ATOM      8  C   UNL     1      -3.408  13.723 -33.482  1.00  0.00    +0.203 A 
ATOM      9  N   UNL     1      -4.044  12.625 -33.828  1.00  0.00    -0.231 NA
ATOM     10  C   UNL     1      -4.129  11.889 -32.665  1.00  0.00    +0.147 A 
ATOM     11  C   UNL     1      -3.545  12.569 -31.607  1.00  0.00    +0.167 A 
ATOM     12  N   UNL     1      -3.454  12.153 -30.333  1.00  0.00    -0.216 NA
ATOM     13  C   UNL     1      -4.007  10.932 -30.181  1.00  0.00    +0.225 A 
ATOM     14  N   UNL     1      -4.604  10.160 -31.114  1.00  0.00    -0.219 NA
ATOM     15  C   UNL     1      -4.678  10.627 -32.381  1.00  0.00    +0.147 A 
BRANCH  15  16
ATOM     16  N   UNL     1      -5.288   9.842 -33.332  1.00  0.00    -0.341 N 
ATOM     17  H   UNL     1      -6.277   9.954 -33.502  1.00  0.00    +0.144 HD
ATOM     18  H   UNL     1      -4.722   9.184 -33.844  1.00  0.00    +0.144 HD
ENDBRANCH  15  16
ENDBRANCH   5   7
BRANCH   4  19
ATOM     19  O   UNL     1      -0.069  15.309 -30.851  1.00  0.00    -0.385 OA
ATOM     20  H   UNL     1      -0.247  16.235 -30.578  1.00  0.00    +0.210 HD
ENDBRANCH   4  19
BRANCH   3  21
ATOM     21  O   UNL     1       0.129  17.135 -32.727  1.00  0.00    -0.386 OA
ATOM     22  H   UNL     1       0.517  17.004 -31.840  1.00  0.00    +0.210 HD
ENDBRANCH   3  21
ENDBRANCH   1   2
BRANCH   1  23
ATOM     23  S   UNL     1      -2.151  19.879 -32.556  1.00  0.00    -0.158 S 
BRANCH  23  24
ATOM     24  C   UNL     1      -3.629  20.946 -32.447  1.00  0.00    +0.069 C 
BRANCH  24  25
ATOM     25  C   UNL     1      -3.717  21.963 -33.586  1.00  0.00    +0.012 C 
BRANCH  25  26
ATOM     26  C   UNL     1      -3.937  23.407 -33.118  1.00  0.00    +0.016 C 
BRANCH  26  27
ATOM     27  C   UNL     1      -4.325  23.494 -31.637  1.00  0.00    +0.081 C 
BRANCH  27  28
ATOM     28  N   UNL     1      -3.593  24.573 -30.971  1.00  0.00    -0.312 NA
ATOM     29  H   UNL     1      -4.263  25.236 -30.581  1.00  0.00    +0.122 HD
BRANCH  28  30
ATOM     30  C   UNL     1      -2.739  24.079 -29.886  1.00  0.00    +0.116 C 
BRANCH  30  33
ATOM     31  C   UNL     1      -0.709  26.712 -28.024  1.00  0.00    +0.001 A 
ATOM     32  C   UNL     1      -1.079  25.742 -28.954  1.00  0.00    +0.005 A 
ATOM     33  C   UNL     1      -2.343  25.144 -28.889  1.00  0.00    -0.033 A 
ATOM     34  C   UNL     1      -3.222  25.529 -27.862  1.00  0.00    +0.013 A 
ATOM     35  C   UNL     1      -2.872  26.508 -26.916  1.00  0.00    -0.018 A 
ATOM     36  C   UNL     1      -1.598  27.091 -27.016  1.00  0.00    +0.008 A 
BRANCH  35  37
ATOM     37  C   UNL     1      -3.811  26.909 -25.856  1.00  0.00    -0.018 A 
ATOM     38  C   UNL     1      -4.236  25.990 -24.879  1.00  0.00    +0.010 A 
ATOM     39  C   UNL     1      -5.128  26.369 -23.871  1.00  0.00    +0.020 A 
ATOM     40  C   UNL     1      -5.608  27.674 -23.829  1.00  0.00    +0.041 A 
ATOM     41  C   UNL     1      -5.205  28.603 -24.784  1.00  0.00    +0.020 A 
ATOM     42  C   UNL     1      -4.312  28.220 -25.790  1.00  0.00    +0.010 A 
ATOM     43 CL   UNL     1      -6.706  28.143 -22.589  1.00  0.00    -0.084 Cl
ENDBRANCH  35  37
ENDBRANCH  30  33
ENDBRANCH  28  30
ENDBRANCH  27  28
ENDBRANCH  26  27
ENDBRANCH  25  26
ENDBRANCH  24  25
ENDBRANCH  23  24
ENDBRANCH   1  23
TORSDOF 14
ENDMDL
MODEL 8
REMARK VINA RESULT:    -7.886      3.125      5.493
REMARK INTER + INTRA:         -15.016
REMARK INTER:                 -13.749
REMARK INTRA:                  -1.268
REMARK UNBOUND:                -1.368
REMARK  Name = 
REMARK  14 active torsions:
REMARK  status: ('A' for Active; 'I' for Inactive)
REMARK    1  A    between atoms: C_3  and  C_14
REMARK    2  A    between atoms: C_5  and  C_7
REMARK    3  A    between atoms: C_14  and  N_15
REMARK    4  A    between atoms: N_15  and  C_16
REMARK    5  A    between atoms: C_16  and  C_17
REMARK    6  A    between atoms: C_17  and  C_18
REMARK    7  A    between atoms: C_18  and  C_19
REMARK    8  A    between atoms: C_19  and  S_20
REMARK    9  A    between atoms: S_20  and  C_21
REMARK   10  A    between atoms: C_21  and  C_22
REMARK   11  A    between atoms: C_23  and  O_38
REMARK   12  A    between atoms: C_24  and  O_37
REMARK   13  A    between atoms: C_25  and  N_27
REMARK   14  A    between atoms: C_35  and  N_36
REMARK                            x       y       z     vdW  Elec       q    Type
REMARK                         _______ _______ _______ _____ _____    ______ ____
ROOT
ATOM      1  C   UNL     1      -1.450  14.434 -32.390  1.00  0.00    +0.103 C 
ENDROOT
BRANCH   1   2
ATOM      2  C   UNL     1      -2.470  13.290 -32.434  1.00  0.00    +0.162 C 
ATOM      3  C   UNL     1      -3.902  13.628 -32.031  1.00  0.00    +0.177 C 
ATOM      4  C   UNL     1      -4.480  12.241 -31.782  1.00  0.00    +0.195 C 
ATOM      5  C   UNL     1      -3.268  11.440 -31.282  1.00  0.00    +0.253 C 
ATOM      6  O   UNL     1      -2.070  12.189 -31.600  1.00  0.00    -0.347 OA
BRANCH   5   7
ATOM      7  N   UNL     1      -3.231  11.119 -29.872  1.00  0.00    -0.286 N 
ATOM      8  C   UNL     1      -2.414  11.735 -28.957  1.00  0.00    +0.203 A 
ATOM      9  N   UNL     1      -2.594  11.271 -27.739  1.00  0.00    -0.231 NA
ATOM     10  C   UNL     1      -3.586  10.321 -27.870  1.00  0.00    +0.147 A 
ATOM     11  C   UNL     1      -3.991  10.210 -29.192  1.00  0.00    +0.167 A 
ATOM     12  N   UNL     1      -4.928   9.381 -29.680  1.00  0.00    -0.216 NA
ATOM     13  C   UNL     1      -5.477   8.638 -28.698  1.00  0.00    +0.225 A 
ATOM     14  N   UNL     1      -5.185   8.641 -27.381  1.00  0.00    -0.219 NA
ATOM     15  C   UNL     1      -4.227   9.487 -26.938  1.00  0.00    +0.147 A 
BRANCH  15  16
ATOM     16  N   UNL     1      -3.927   9.491 -25.596  1.00  0.00    -0.341 N 
ATOM     17  H   UNL     1      -4.313   8.770 -25.004  1.00  0.00    +0.144 HD
ATOM     18  H   UNL     1      -3.316  10.210 -25.245  1.00  0.00    +0.144 HD
ENDBRANCH  15  16
ENDBRANCH   5   7
BRANCH   4  19
ATOM     19  O   UNL     1      -4.950  11.697 -33.032  1.00  0.00    -0.385 OA
ATOM     20  H   UNL     1      -5.252  12.478 -33.544  1.00  0.00    +0.210 HD
ENDBRANCH   4  19
BRANCH   3  21
ATOM     21  O   UNL     1      -4.628  14.303 -33.058  1.00  0.00    -0.386 OA
ATOM     22  H   UNL     1      -4.532  15.259 -32.886  1.00  0.00    +0.210 HD
ENDBRANCH   3  21
ENDBRANCH   1   2
BRANCH   1  23
ATOM     23  S   UNL     1      -0.292  14.449 -30.971  1.00  0.00    -0.158 S 
BRANCH  23  24
ATOM     24  C   UNL     1       1.079  15.439 -31.661  1.00  0.00    +0.069 C 
BRANCH  24  25
ATOM     25  C   UNL     1       0.986  16.922 -31.298  1.00  0.00    +0.012 C 
BRANCH  25  26
ATOM     26  C   UNL     1       0.807  17.849 -32.506  1.00  0.00    +0.016 C 
BRANCH  26  27
ATOM     27  C   UNL     1      -0.663  18.019 -32.908  1.00  0.00    +0.081 C 
BRANCH  27  28
ATOM     28  N   UNL     1      -1.134  19.369 -32.596  1.00  0.00    -0.312 NA
ATOM     29  H   UNL     1      -0.669  20.034 -33.215  1.00  0.00    +0.122 HD
BRANCH  28  30
ATOM     30  C   UNL     1      -2.584  19.505 -32.767  1.00  0.00    +0.116 C 
BRANCH  30  33
ATOM     31  C   UNL     1      -4.218  22.918 -33.220  1.00  0.00    +0.001 A 
ATOM     32  C   UNL     1      -3.755  21.629 -33.480  1.00  0.00    +0.005 A 
ATOM     33  C   UNL     1      -3.103  20.896 -32.482  1.00  0.00    -0.033 A 
ATOM     34  C   UNL     1      -2.910  21.490 -31.222  1.00  0.00    +0.013 A 
ATOM     35  C   UNL     1      -3.373  22.786 -30.937  1.00  0.00    -0.018 A 
ATOM     36  C   UNL     1      -4.030  23.489 -31.960  1.00  0.00    +0.008 A 
BRANCH  35  37
ATOM     37  C   UNL     1      -3.176  23.387 -29.607  1.00  0.00    -0.018 A 
ATOM     38  C   UNL     1      -2.707  24.706 -29.472  1.00  0.00    +0.010 A 
ATOM     39  C   UNL     1      -2.519  25.279 -28.209  1.00  0.00    +0.020 A 
ATOM     40  C   UNL     1      -2.795  24.537 -27.066  1.00  0.00    +0.041 A 
ATOM     41  C   UNL     1      -3.258  23.228 -27.172  1.00  0.00    +0.020 A 
ATOM     42  C   UNL     1      -3.446  22.659 -28.436  1.00  0.00    +0.010 A 
ATOM     43 CL   UNL     1      -2.565  25.239 -25.512  1.00  0.00    -0.084 Cl
ENDBRANCH  35  37
ENDBRANCH  30  33
ENDBRANCH  28  30
ENDBRANCH  27  28
ENDBRANCH  26  27
ENDBRANCH  25  26
ENDBRANCH  24  25
ENDBRANCH  23  24
ENDBRANCH   1  23
TORSDOF 14
ENDMDL
MODEL 9
REMARK VINA RESULT:    -7.872      5.790     12.315
REMARK INTER + INTRA:         -14.993
REMARK INTER:                 -13.205
REMARK INTRA:                  -1.788
REMARK UNBOUND:                -1.368
REMARK  Name = 
REMARK  14 active torsions:
REMARK  status: ('A' for Active; 'I' for Inactive)
REMARK    1  A    between atoms: C_3  and  C_14
REMARK    2  A    between atoms: C_5  and  C_7
REMARK    3  A    between atoms: C_14  and  N_15
REMARK    4  A    between atoms: N_15  and  C_16
REMARK    5  A    between atoms: C_16  and  C_17
REMARK    6  A    between atoms: C_17  and  C_18
REMARK    7  A    between atoms: C_18  and  C_19
REMARK    8  A    between atoms: C_19  and  S_20
REMARK    9  A    between atoms: S_20  and  C_21
REMARK   10  A    between atoms: C_21  and  C_22
REMARK   11  A    between atoms: C_23  and  O_38
REMARK   12  A    between atoms: C_24  and  O_37
REMARK   13  A    between atoms: C_25  and  N_27
REMARK   14  A    between atoms: C_35  and  N_36
REMARK                            x       y       z     vdW  Elec       q    Type
REMARK                         _______ _______ _______ _____ _____    ______ ____
ROOT
ATOM      1  C   UNL     1      -3.162  15.560 -31.649  1.00  0.00    +0.103 C 
ENDROOT
BRANCH   1   2
ATOM      2  C   UNL     1      -2.554  16.639 -32.553  1.00  0.00    +0.162 C 
ATOM      3  C   UNL     1      -1.135  17.095 -32.226  1.00  0.00    +0.177 C 
ATOM      4  C   UNL     1      -1.050  18.401 -33.005  1.00  0.00    +0.195 C 
ATOM      5  C   UNL     1      -2.495  18.921 -32.977  1.00  0.00    +0.253 C 
ATOM      6  O   UNL     1      -3.360  17.830 -32.576  1.00  0.00    -0.347 OA
BRANCH   5   7
ATOM      7  N   UNL     1      -2.771  20.048 -32.113  1.00  0.00    -0.286 N 
ATOM      8  C   UNL     1      -2.554  20.058 -30.757  1.00  0.00    +0.203 A 
ATOM      9  N   UNL     1      -2.866  21.214 -30.213  1.00  0.00    -0.231 NA
ATOM     10  C   UNL     1      -3.290  21.994 -31.269  1.00  0.00    +0.147 A 
ATOM     11  C   UNL     1      -3.242  21.283 -32.458  1.00  0.00    +0.167 A 
ATOM     12  N   UNL     1      -3.589  21.727 -33.678  1.00  0.00    -0.216 NA
ATOM     13  C   UNL     1      -3.997  23.011 -33.628  1.00  0.00    +0.225 A 
ATOM     14  N   UNL     1      -4.093  23.819 -32.551  1.00  0.00    -0.219 NA
ATOM     15  C   UNL     1      -3.741  23.323 -31.343  1.00  0.00    +0.147 A 
BRANCH  15  16
ATOM     16  N   UNL     1      -3.840  24.145 -30.245  1.00  0.00    -0.341 N 
ATOM     17  H   UNL     1      -3.001  24.396 -29.741  1.00  0.00    +0.144 HD
ATOM     18  H   UNL     1      -4.751  24.486 -29.984  1.00  0.00    +0.144 HD
ENDBRANCH  15  16
ENDBRANCH   5   7
BRANCH   4  19
ATOM     19  O   UNL     1      -0.654  18.113 -34.360  1.00  0.00    -0.385 OA
ATOM     20  H   UNL     1      -0.155  17.271 -34.300  1.00  0.00    +0.210 HD
ENDBRANCH   4  19
BRANCH   3  21
ATOM     21  O   UNL     1      -0.136  16.175 -32.666  1.00  0.00    -0.386 OA
ATOM     22  H   UNL     1       0.647  16.322 -32.102  1.00  0.00    +0.210 HD
ENDBRANCH   3  21
ENDBRANCH   1   2
BRANCH   1  23
ATOM     23  S   UNL     1      -3.553  13.954 -32.435  1.00  0.00    -0.158 S 
BRANCH  23  24
ATOM     24  C   UNL     1      -1.954  13.090 -32.257  1.00  0.00    +0.069 C 
BRANCH  24  25
ATOM     25  C   UNL     1      -1.442  13.072 -30.816  1.00  0.00    +0.012 C 
BRANCH  25  26
ATOM     26  C   UNL     1      -1.682  11.745 -30.085  1.00  0.00    +0.016 C 
BRANCH  26  27
ATOM     27  C   UNL     1      -2.892  11.799 -29.144  1.00  0.00    +0.081 C 
BRANCH  27  28
ATOM     28  N   UNL     1      -4.122  11.453 -29.858  1.00  0.00    -0.312 NA
ATOM     29  H   UNL     1      -4.124  11.925 -30.762  1.00  0.00    +0.122 HD
BRANCH  28  30
ATOM     30  C   UNL     1      -4.247  10.010 -30.083  1.00  0.00    +0.116 C 
BRANCH  30  33
ATOM     31  C   UNL     1      -6.104   8.854 -33.202  1.00  0.00    +0.001 A 
ATOM     32  C   UNL     1      -5.831   9.210 -31.883  1.00  0.00    +0.005 A 
ATOM     33  C   UNL     1      -4.551   9.641 -31.517  1.00  0.00    -0.033 A 
ATOM     34  C   UNL     1      -3.546   9.692 -32.500  1.00  0.00    +0.013 A 
ATOM     35  C   UNL     1      -3.801   9.343 -33.837  1.00  0.00    -0.018 A 
ATOM     36  C   UNL     1      -5.099   8.921 -34.169  1.00  0.00    +0.008 A 
BRANCH  35  37
ATOM     37  C   UNL     1      -2.742   9.416 -34.856  1.00  0.00    -0.018 A 
ATOM     38  C   UNL     1      -2.670   8.471 -35.895  1.00  0.00    +0.010 A 
ATOM     39  C   UNL     1      -1.664   8.539 -36.865  1.00  0.00    +0.020 A 
ATOM     40  C   UNL     1      -0.714   9.554 -36.804  1.00  0.00    +0.041 A 
ATOM     41  C   UNL     1      -0.762  10.502 -35.785  1.00  0.00    +0.020 A 
ATOM     42  C   UNL     1      -1.770  10.431 -34.818  1.00  0.00    +0.010 A 
ATOM     43 CL   UNL     1       0.524   9.640 -37.996  1.00  0.00    -0.084 Cl
ENDBRANCH  35  37
ENDBRANCH  30  33
ENDBRANCH  28  30
ENDBRANCH  27  28
ENDBRANCH  26  27
ENDBRANCH  25  26
ENDBRANCH  24  25
ENDBRANCH  23  24
ENDBRANCH   1  23
TORSDOF 14
ENDMDL
