MODEL 1
REMARK VINA RESULT:    -8.269      0.000      0.000
REMARK INTER + INTRA:         -15.879
REMARK INTER:                 -14.312
REMARK INTRA:                  -1.567
REMARK UNBOUND:                -1.567
REMARK  Name = 
REMARK  14 active torsions:
REMARK  status: ('A' for Active; 'I' for Inactive)
REMARK    1  A    between atoms: C_3  and  C_14
REMARK    2  A    between atoms: C_5  and  C_7
REMARK    3  A    between atoms: C_14  and  N_15
REMARK    4  A    between atoms: N_15  and  C_16
REMARK    5  A    between atoms: C_16  and  C_17
REMARK    6  A    between atoms: C_17  and  C_18
REMARK    7  A    between atoms: C_18  and  C_19
REMARK    8  A    between atoms: C_19  and  S_20
REMARK    9  A    between atoms: S_20  and  C_21
REMARK   10  A    between atoms: C_21  and  C_22
REMARK   11  A    between atoms: C_23  and  O_38
REMARK   12  A    between atoms: C_24  and  O_37
REMARK   13  A    between atoms: C_25  and  N_27
REMARK   14  A    between atoms: C_35  and  N_36
REMARK                            x       y       z     vdW  Elec       q    Type
REMARK                         _______ _______ _______ _____ _____    ______ ____
ROOT
ATOM      1  C   UNL     1      -0.025  13.866 -31.323  1.00  0.00    +0.103 C 
ENDROOT
BRANCH   1   2
ATOM      2  C   UNL     1      -1.194  14.231 -32.245  1.00  0.00    +0.162 C 
ATOM      3  C   UNL     1      -2.428  14.840 -31.586  1.00  0.00    +0.177 C 
ATOM      4  C   UNL     1      -3.474  14.661 -32.679  1.00  0.00    +0.195 C 
ATOM      5  C   UNL     1      -3.026  13.374 -33.387  1.00  0.00    +0.253 C 
ATOM      6  O   UNL     1      -1.662  13.092 -32.989  1.00  0.00    -0.347 OA
BRANCH   5   7
ATOM      7  N   UNL     1      -3.814  12.184 -33.147  1.00  0.00    -0.286 N 
ATOM      8  C   UNL     1      -4.521  11.941 -31.996  1.00  0.00    +0.203 A 
ATOM      9  N   UNL     1      -5.170  10.798 -32.045  1.00  0.00    -0.231 NA
ATOM     10  C   UNL     1      -4.881  10.285 -33.293  1.00  0.00    +0.147 A 
ATOM     11  C   UNL     1      -4.035  11.133 -33.991  1.00  0.00    +0.167 A 
ATOM     12  N   UNL     1      -3.546  10.945 -35.228  1.00  0.00    -0.216 NA
ATOM     13  C   UNL     1      -4.000   9.791 -35.758  1.00  0.00    +0.225 A 
ATOM     14  N   UNL     1      -4.821   8.877 -35.199  1.00  0.00    -0.219 NA
ATOM     15  C   UNL     1      -5.280   9.107 -33.948  1.00  0.00    +0.147 A 
BRANCH  15  16
ATOM     16  N   UNL     1      -6.116   8.177 -33.377  1.00  0.00    -0.341 N 
ATOM     17  H   UNL     1      -5.749   7.549 -32.677  1.00  0.00    +0.144 HD
ATOM     18  H   UNL     1      -7.081   8.160 -33.666  1.00  0.00    +0.144 HD
ENDBRANCH  15  16
ENDBRANCH   5   7
BRANCH   4  19
ATOM     19  O   UNL     1      -3.398  15.777 -33.588  1.00  0.00    -0.385 OA
ATOM     20  H   UNL     1      -2.696  15.529 -34.227  1.00  0.00    +0.210 HD
ENDBRANCH   4  19
BRANCH   3  21
ATOM     21  O   UNL     1      -2.265  16.220 -31.261  1.00  0.00    -0.386 OA
ATOM     22  H   UNL     1      -1.854  16.644 -32.038  1.00  0.00    +0.210 HD
ENDBRANCH   3  21
ENDBRANCH   1   2
BRANCH   1  23
ATOM     23  S   UNL     1       1.576  14.686 -31.664  1.00  0.00    -0.158 S 
BRANCH  23  24
ATOM     24  C   UNL     1       1.245  16.361 -31.014  1.00  0.00    +0.069 C 
BRANCH  24  25
ATOM     25  C   UNL     1       1.174  17.424 -32.112  1.00  0.00    +0.012 C 
BRANCH  25  26
ATOM     26  C   UNL     1       0.182  18.556 -31.820  1.00  0.00    +0.016 C 
BRANCH  26  27
ATOM     27  C   UNL     1      -0.416  19.161 -33.095  1.00  0.00    +0.081 C 
BRANCH  27  28
ATOM     28  N   UNL     1      -1.837  18.828 -33.212  1.00  0.00    -0.312 NA
ATOM     29  H   UNL     1      -1.930  17.828 -33.385  1.00  0.00    +0.122 HD
BRANCH  28  30
ATOM     30  C   UNL     1      -2.588  19.165 -31.998  1.00  0.00    +0.116 C 
BRANCH  30  33
ATOM     31  C   UNL     1      -4.065  22.538 -32.978  1.00  0.00    +0.001 A 
ATOM     32  C   UNL     1      -3.672  21.202 -33.031  1.00  0.00    +0.005 A 
ATOM     33  C   UNL     1      -3.031  20.609 -31.937  1.00  0.00    -0.033 A 
ATOM     34  C   UNL     1      -2.778  21.390 -30.795  1.00  0.00    +0.013 A 
ATOM     35  C   UNL     1      -3.169  22.738 -30.719  1.00  0.00    -0.018 A 
ATOM     36  C   UNL     1      -3.817  23.297 -31.833  1.00  0.00    +0.008 A 
BRANCH  35  37
ATOM     37  C   UNL     1      -2.910  23.536 -29.510  1.00  0.00    -0.018 A 
ATOM     38  C   UNL     1      -3.165  23.015 -28.229  1.00  0.00    +0.010 A 
ATOM     39  C   UNL     1      -2.920  23.773 -27.079  1.00  0.00    +0.020 A 
ATOM     40  C   UNL     1      -2.417  25.064 -27.198  1.00  0.00    +0.041 A 
ATOM     41  C   UNL     1      -2.157  25.605 -28.454  1.00  0.00    +0.020 A 
ATOM     42  C   UNL     1      -2.402  24.844 -29.601  1.00  0.00    +0.010 A 
ATOM     43 CL   UNL     1      -2.114  25.998 -25.784  1.00  0.00    -0.084 Cl
ENDBRANCH  35  37
ENDBRANCH  30  33
ENDBRANCH  28  30
ENDBRANCH  27  28
ENDBRANCH  26  27
ENDBRANCH  25  26
ENDBRANCH  24  25
ENDBRANCH  23  24
ENDBRANCH   1  23
TORSDOF 14
ENDMDL
MODEL 2
REMARK VINA RESULT:    -8.236      5.210     13.139
REMARK INTER + INTRA:         -15.821
REMARK INTER:                 -14.642
REMARK INTRA:                  -1.179
REMARK UNBOUND:                -1.567
REMARK  Name = 
REMARK  14 active torsions:
REMARK  status: ('A' for Active; 'I' for Inactive)
REMARK    1  A    between atoms: C_3  and  C_14
REMARK    2  A    between atoms: C_5  and  C_7
REMARK    3  A    between atoms: C_14  and  N_15
REMARK    4  A    between atoms: N_15  and  C_16
REMARK    5  A    between atoms: C_16  and  C_17
REMARK    6  A    between atoms: C_17  and  C_18
REMARK    7  A    between atoms: C_18  and  C_19
REMARK    8  A    between atoms: C_19  and  S_20
REMARK    9  A    between atoms: S_20  and  C_21
REMARK   10  A    between atoms: C_21  and  C_22
REMARK   11  A    between atoms: C_23  and  O_38
REMARK   12  A    between atoms: C_24  and  O_37
REMARK   13  A    between atoms: C_25  and  N_27
REMARK   14  A    between atoms: C_35  and  N_36
REMARK                            x       y       z     vdW  Elec       q    Type
REMARK                         _______ _______ _______ _____ _____    ______ ____
ROOT
ATOM      1  C   UNL     1      -3.076  15.524 -31.615  1.00  0.00    +0.103 C 
ENDROOT
BRANCH   1   2
ATOM      2  C   UNL     1      -2.513  16.607 -32.543  1.00  0.00    +0.162 C 
ATOM      3  C   UNL     1      -1.095  17.091 -32.258  1.00  0.00    +0.177 C 
ATOM      4  C   UNL     1      -1.055  18.393 -33.048  1.00  0.00    +0.195 C 
ATOM      5  C   UNL     1      -2.509  18.886 -32.985  1.00  0.00    +0.253 C 
ATOM      6  O   UNL     1      -3.341  17.783 -32.552  1.00  0.00    -0.347 OA
BRANCH   5   7
ATOM      7  N   UNL     1      -2.781  20.014 -32.121  1.00  0.00    -0.286 N 
ATOM      8  C   UNL     1      -2.559  20.026 -30.766  1.00  0.00    +0.203 A 
ATOM      9  N   UNL     1      -2.870  21.183 -30.223  1.00  0.00    -0.231 NA
ATOM     10  C   UNL     1      -3.298  21.961 -31.279  1.00  0.00    +0.147 A 
ATOM     11  C   UNL     1      -3.255  21.248 -32.467  1.00  0.00    +0.167 A 
ATOM     12  N   UNL     1      -3.606  21.691 -33.685  1.00  0.00    -0.216 NA
ATOM     13  C   UNL     1      -4.014  22.975 -33.636  1.00  0.00    +0.225 A 
ATOM     14  N   UNL     1      -4.107  23.784 -32.560  1.00  0.00    -0.219 NA
ATOM     15  C   UNL     1      -3.750  23.290 -31.353  1.00  0.00    +0.147 A 
BRANCH  15  16
ATOM     16  N   UNL     1      -3.845  24.114 -30.255  1.00  0.00    -0.341 N 
ATOM     17  H   UNL     1      -3.423  23.824 -29.385  1.00  0.00    +0.144 HD
ATOM     18  H   UNL     1      -4.324  24.993 -30.358  1.00  0.00    +0.144 HD
ENDBRANCH  15  16
ENDBRANCH   5   7
BRANCH   4  19
ATOM     19  O   UNL     1      -0.692  18.102 -34.412  1.00  0.00    -0.385 OA
ATOM     20  H   UNL     1      -1.414  18.491 -34.951  1.00  0.00    +0.210 HD
ENDBRANCH   4  19
BRANCH   3  21
ATOM     21  O   UNL     1      -0.091  16.187 -32.720  1.00  0.00    -0.386 OA
ATOM     22  H   UNL     1      -0.423  15.286 -32.540  1.00  0.00    +0.210 HD
ENDBRANCH   3  21
ENDBRANCH   1   2
BRANCH   1  23
ATOM     23  S   UNL     1      -2.823  13.786 -32.132  1.00  0.00    -0.158 S 
BRANCH  23  24
ATOM     24  C   UNL     1      -3.537  13.825 -33.813  1.00  0.00    +0.069 C 
BRANCH  24  25
ATOM     25  C   UNL     1      -3.280  12.539 -34.601  1.00  0.00    +0.012 C 
BRANCH  25  26
ATOM     26  C   UNL     1      -4.557  11.801 -35.022  1.00  0.00    +0.016 C 
BRANCH  26  27
ATOM     27  C   UNL     1      -4.392  10.277 -35.000  1.00  0.00    +0.081 C 
BRANCH  27  28
ATOM     28  N   UNL     1      -2.995   9.908 -34.762  1.00  0.00    -0.312 NA
ATOM     29  H   UNL     1      -2.667  10.379 -33.920  1.00  0.00    +0.122 HD
BRANCH  28  30
ATOM     30  C   UNL     1      -2.824   8.463 -34.586  1.00  0.00    +0.116 C 
BRANCH  30  33
ATOM     31  C   UNL     1      -2.900   5.711 -37.222  1.00  0.00    +0.001 A 
ATOM     32  C   UNL     1      -3.106   6.408 -36.032  1.00  0.00    +0.005 A 
ATOM     33  C   UNL     1      -2.619   7.712 -35.882  1.00  0.00    -0.033 A 
ATOM     34  C   UNL     1      -1.907   8.296 -36.945  1.00  0.00    +0.013 A 
ATOM     35  C   UNL     1      -1.692   7.613 -38.155  1.00  0.00    -0.018 A 
ATOM     36  C   UNL     1      -2.202   6.310 -38.273  1.00  0.00    +0.008 A 
BRANCH  35  37
ATOM     37  C   UNL     1      -0.958   8.245 -39.263  1.00  0.00    -0.018 A 
ATOM     38  C   UNL     1       0.290   8.857 -39.049  1.00  0.00    +0.010 A 
ATOM     39  C   UNL     1       0.989   9.459 -40.101  1.00  0.00    +0.020 A 
ATOM     40  C   UNL     1       0.445   9.457 -41.381  1.00  0.00    +0.041 A 
ATOM     41  C   UNL     1      -0.789   8.860 -41.620  1.00  0.00    +0.020 A 
ATOM     42  C   UNL     1      -1.485   8.259 -40.567  1.00  0.00    +0.010 A 
ATOM     43 CL   UNL     1       1.304  10.197 -42.677  1.00  0.00    -0.084 Cl
ENDBRANCH  35  37
ENDBRANCH  30  33
ENDBRANCH  28  30
ENDBRANCH  27  28
ENDBRANCH  26  27
ENDBRANCH  25  26
ENDBRANCH  24  25
ENDBRANCH  23  24
ENDBRANCH   1  23
TORSDOF 14
ENDMDL
MODEL 3
REMARK VINA RESULT:    -8.103      3.329      4.433
REMARK INTER + INTRA:         -15.591
REMARK INTER:                 -14.406
REMARK INTRA:                  -1.185
REMARK UNBOUND:                -1.567
REMARK  Name = 
REMARK  14 active torsions:
REMARK  status: ('A' for Active; 'I' for Inactive)
REMARK    1  A    between atoms: C_3  and  C_14
REMARK    2  A    between atoms: C_5  and  C_7
REMARK    3  A    between atoms: C_14  and  N_15
REMARK    4  A    between atoms: N_15  and  C_16
REMARK    5  A    between atoms: C_16  and  C_17
REMARK    6  A    between atoms: C_17  and  C_18
REMARK    7  A    between atoms: C_18  and  C_19
REMARK    8  A    between atoms: C_19  and  S_20
REMARK    9  A    between atoms: S_20  and  C_21
REMARK   10  A    between atoms: C_21  and  C_22
REMARK   11  A    between atoms: C_23  and  O_38
REMARK   12  A    between atoms: C_24  and  O_37
REMARK   13  A    between atoms: C_25  and  N_27
REMARK   14  A    between atoms: C_35  and  N_36
REMARK                            x       y       z     vdW  Elec       q    Type
REMARK                         _______ _______ _______ _____ _____    ______ ____
ROOT
ATOM      1  C   UNL     1      -2.221  12.028 -32.414  1.00  0.00    +0.103 C 
ENDROOT
BRANCH   1   2
ATOM      2  C   UNL     1      -3.196  10.853 -32.280  1.00  0.00    +0.162 C 
ATOM      3  C   UNL     1      -4.681  11.195 -32.197  1.00  0.00    +0.177 C 
ATOM      4  C   UNL     1      -5.261   9.896 -31.653  1.00  0.00    +0.195 C 
ATOM      5  C   UNL     1      -4.124   9.342 -30.781  1.00  0.00    +0.253 C 
ATOM      6  O   UNL     1      -2.908  10.050 -31.122  1.00  0.00    -0.347 OA
BRANCH   5   7
ATOM      7  N   UNL     1      -4.299   9.424 -29.347  1.00  0.00    -0.286 N 
ATOM      8  C   UNL     1      -3.731  10.386 -28.549  1.00  0.00    +0.203 A 
ATOM      9  N   UNL     1      -4.069  10.245 -27.286  1.00  0.00    -0.231 NA
ATOM     10  C   UNL     1      -4.908   9.150 -27.268  1.00  0.00    +0.147 A 
ATOM     11  C   UNL     1      -5.058   8.623 -28.541  1.00  0.00    +0.167 A 
ATOM     12  N   UNL     1      -5.794   7.555 -28.890  1.00  0.00    -0.216 NA
ATOM     13  C   UNL     1      -6.419   7.026 -27.818  1.00  0.00    +0.225 A 
ATOM     14  N   UNL     1      -6.366   7.431 -26.532  1.00  0.00    -0.219 NA
ATOM     15  C   UNL     1      -5.603   8.507 -26.230  1.00  0.00    +0.147 A 
BRANCH  15  16
ATOM     16  N   UNL     1      -5.547   8.920 -24.919  1.00  0.00    -0.341 N 
ATOM     17  H   UNL     1      -5.822   8.279 -24.189  1.00  0.00    +0.144 HD
ATOM     18  H   UNL     1      -5.217   9.852 -24.725  1.00  0.00    +0.144 HD
ENDBRANCH  15  16
ENDBRANCH   5   7
BRANCH   4  19
ATOM     19  O   UNL     1      -5.519   9.001 -32.754  1.00  0.00    -0.385 OA
ATOM     20  H   UNL     1      -6.446   8.707 -32.623  1.00  0.00    +0.210 HD
ENDBRANCH   4  19
BRANCH   3  21
ATOM     21  O   UNL     1      -5.253  11.515 -33.465  1.00  0.00    -0.386 OA
ATOM     22  H   UNL     1      -4.625  11.199 -34.143  1.00  0.00    +0.210 HD
ENDBRANCH   3  21
ENDBRANCH   1   2
BRANCH   1  23
ATOM     23  S   UNL     1      -2.223  13.256 -31.056  1.00  0.00    -0.158 S 
BRANCH  23  24
ATOM     24  C   UNL     1      -0.865  14.355 -31.590  1.00  0.00    +0.069 C 
BRANCH  24  25
ATOM     25  C   UNL     1      -1.358  15.584 -32.355  1.00  0.00    +0.012 C 
BRANCH  25  26
ATOM     26  C   UNL     1      -2.834  15.921 -32.110  1.00  0.00    +0.016 C 
BRANCH  26  27
ATOM     27  C   UNL     1      -3.302  17.142 -32.910  1.00  0.00    +0.081 C 
BRANCH  27  28
ATOM     28  N   UNL     1      -3.332  18.337 -32.065  1.00  0.00    -0.312 NA
ATOM     29  H   UNL     1      -3.033  18.084 -31.124  1.00  0.00    +0.122 HD
BRANCH  28  30
ATOM     30  C   UNL     1      -2.449  19.395 -32.567  1.00  0.00    +0.116 C 
BRANCH  30  33
ATOM     31  C   UNL     1      -4.195  22.722 -33.203  1.00  0.00    +0.001 A 
ATOM     32  C   UNL     1      -3.707  21.429 -33.386  1.00  0.00    +0.005 A 
ATOM     33  C   UNL     1      -2.994  20.790 -32.365  1.00  0.00    -0.033 A 
ATOM     34  C   UNL     1      -2.768  21.482 -31.162  1.00  0.00    +0.013 A 
ATOM     35  C   UNL     1      -3.254  22.784 -30.954  1.00  0.00    -0.018 A 
ATOM     36  C   UNL     1      -3.971  23.391 -31.998  1.00  0.00    +0.008 A 
BRANCH  35  37
ATOM     37  C   UNL     1      -3.020  23.488 -29.683  1.00  0.00    -0.018 A 
ATOM     38  C   UNL     1      -3.268  22.859 -28.450  1.00  0.00    +0.010 A 
ATOM     39  C   UNL     1      -3.047  23.526 -27.241  1.00  0.00    +0.020 A 
ATOM     40  C   UNL     1      -2.576  24.835 -27.251  1.00  0.00    +0.041 A 
ATOM     41  C   UNL     1      -2.323  25.482 -28.458  1.00  0.00    +0.020 A 
ATOM     42  C   UNL     1      -2.545  24.811 -29.664  1.00  0.00    +0.010 A 
ATOM     43 CL   UNL     1      -2.302  25.658 -25.764  1.00  0.00    -0.084 Cl
ENDBRANCH  35  37
ENDBRANCH  30  33
ENDBRANCH  28  30
ENDBRANCH  27  28
ENDBRANCH  26  27
ENDBRANCH  25  26
ENDBRANCH  24  25
ENDBRANCH  23  24
ENDBRANCH   1  23
TORSDOF 14
ENDMDL
MODEL 4
REMARK VINA RESULT:    -7.993      2.012      2.761
REMARK INTER + INTRA:         -15.401
REMARK INTER:                 -14.207
REMARK INTRA:                  -1.194
REMARK UNBOUND:                -1.567
REMARK  Name = 
REMARK  14 active torsions:
REMARK  status: ('A' for Active; 'I' for Inactive)
REMARK    1  A    between atoms: C_3  and  C_14
REMARK    2  A    between atoms: C_5  and  C_7
REMARK    3  A    between atoms: C_14  and  N_15
REMARK    4  A    between atoms: N_15  and  C_16
REMARK    5  A    between atoms: C_16  and  C_17
REMARK    6  A    between atoms: C_17  and  C_18
REMARK    7  A    between atoms: C_18  and  C_19
REMARK    8  A    between atoms: C_19  and  S_20
REMARK    9  A    between atoms: S_20  and  C_21
REMARK   10  A    between atoms: C_21  and  C_22
REMARK   11  A    between atoms: C_23  and  O_38
REMARK   12  A    between atoms: C_24  and  O_37
REMARK   13  A    between atoms: C_25  and  N_27
REMARK   14  A    between atoms: C_35  and  N_36
REMARK                            x       y       z     vdW  Elec       q    Type
REMARK                         _______ _______ _______ _____ _____    ______ ____
ROOT
ATOM      1  C   UNL     1      -0.212  13.117 -32.446  1.00  0.00    +0.103 C 
ENDROOT
BRANCH   1   2
ATOM      2  C   UNL     1      -1.381  12.319 -33.037  1.00  0.00    +0.162 C 
ATOM      3  C   UNL     1      -2.711  13.053 -33.186  1.00  0.00    +0.177 C 
ATOM      4  C   UNL     1      -3.678  11.890 -33.368  1.00  0.00    +0.195 C 
ATOM      5  C   UNL     1      -3.034  10.765 -32.545  1.00  0.00    +0.253 C 
ATOM      6  O   UNL     1      -1.662  11.137 -32.267  1.00  0.00    -0.347 OA
BRANCH   5   7
ATOM      7  N   UNL     1      -3.666  10.427 -31.289  1.00  0.00    -0.286 N 
ATOM      8  C   UNL     1      -3.811  11.294 -30.234  1.00  0.00    +0.203 A 
ATOM      9  N   UNL     1      -4.442  10.742 -29.221  1.00  0.00    -0.231 NA
ATOM     10  C   UNL     1      -4.733   9.462 -29.646  1.00  0.00    +0.147 A 
ATOM     11  C   UNL     1      -4.254   9.247 -30.929  1.00  0.00    +0.167 A 
ATOM     12  N   UNL     1      -4.353   8.116 -31.648  1.00  0.00    -0.216 NA
ATOM     13  C   UNL     1      -5.017   7.163 -30.963  1.00  0.00    +0.225 A 
ATOM     14  N   UNL     1      -5.535   7.232 -29.718  1.00  0.00    -0.219 NA
ATOM     15  C   UNL     1      -5.402   8.389 -29.031  1.00  0.00    +0.147 A 
BRANCH  15  16
ATOM     16  N   UNL     1      -5.929   8.460 -27.763  1.00  0.00    -0.341 N 
ATOM     17  H   UNL     1      -6.364   7.641 -27.364  1.00  0.00    +0.144 HD
ATOM     18  H   UNL     1      -5.851   9.330 -27.261  1.00  0.00    +0.144 HD
ENDBRANCH  15  16
ENDBRANCH   5   7
BRANCH   4  19
ATOM     19  O   UNL     1      -3.713  11.525 -34.762  1.00  0.00    -0.385 OA
ATOM     20  H   UNL     1      -4.663  11.570 -35.007  1.00  0.00    +0.210 HD
ENDBRANCH   4  19
BRANCH   3  21
ATOM     21  O   UNL     1      -2.746  13.924 -34.315  1.00  0.00    -0.386 OA
ATOM     22  H   UNL     1      -2.713  13.356 -35.108  1.00  0.00    +0.210 HD
ENDBRANCH   3  21
ENDBRANCH   1   2
BRANCH   1  23
ATOM     23  S   UNL     1      -0.634  14.394 -31.203  1.00  0.00    -0.158 S 
BRANCH  23  24
ATOM     24  C   UNL     1       0.944  15.308 -31.108  1.00  0.00    +0.069 C 
BRANCH  24  25
ATOM     25  C   UNL     1       0.911  16.638 -31.863  1.00  0.00    +0.012 C 
BRANCH  25  26
ATOM     26  C   UNL     1      -0.459  16.980 -32.462  1.00  0.00    +0.016 C 
BRANCH  26  27
ATOM     27  C   UNL     1      -0.626  18.480 -32.733  1.00  0.00    +0.081 C 
BRANCH  27  28
ATOM     28  N   UNL     1      -1.967  18.769 -33.246  1.00  0.00    -0.312 NA
ATOM     29  H   UNL     1      -2.326  17.940 -33.719  1.00  0.00    +0.122 HD
BRANCH  28  30
ATOM     30  C   UNL     1      -2.902  19.140 -32.179  1.00  0.00    +0.116 C 
BRANCH  30  33
ATOM     31  C   UNL     1      -3.951  22.657 -33.203  1.00  0.00    +0.001 A 
ATOM     32  C   UNL     1      -3.687  21.289 -33.253  1.00  0.00    +0.005 A 
ATOM     33  C   UNL     1      -3.206  20.619 -32.122  1.00  0.00    -0.033 A 
ATOM     34  C   UNL     1      -2.979  21.354 -30.945  1.00  0.00    +0.013 A 
ATOM     35  C   UNL     1      -3.241  22.733 -30.871  1.00  0.00    -0.018 A 
ATOM     36  C   UNL     1      -3.731  23.370 -32.023  1.00  0.00    +0.008 A 
BRANCH  35  37
ATOM     37  C   UNL     1      -3.012  23.484 -29.626  1.00  0.00    -0.018 A 
ATOM     38  C   UNL     1      -2.567  24.818 -29.658  1.00  0.00    +0.010 A 
ATOM     39  C   UNL     1      -2.347  25.533 -28.476  1.00  0.00    +0.020 A 
ATOM     40  C   UNL     1      -2.569  24.921 -27.247  1.00  0.00    +0.041 A 
ATOM     41  C   UNL     1      -3.008  23.601 -27.188  1.00  0.00    +0.020 A 
ATOM     42  C   UNL     1      -3.228  22.889 -28.371  1.00  0.00    +0.010 A 
ATOM     43 CL   UNL     1      -2.301  25.800 -25.791  1.00  0.00    -0.084 Cl
ENDBRANCH  35  37
ENDBRANCH  30  33
ENDBRANCH  28  30
ENDBRANCH  27  28
ENDBRANCH  26  27
ENDBRANCH  25  26
ENDBRANCH  24  25
ENDBRANCH  23  24
ENDBRANCH   1  23
TORSDOF 14
ENDMDL
MODEL 5
REMARK VINA RESULT:    -7.954      3.703      4.765
REMARK INTER + INTRA:         -15.333
REMARK INTER:                 -14.150
REMARK INTRA:                  -1.183
REMARK UNBOUND:                -1.567
REMARK  Name = 
REMARK  14 active torsions:
REMARK  status: ('A' for Active; 'I' for Inactive)
REMARK    1  A    between atoms: C_3  and  C_14
REMARK    2  A    between atoms: C_5  and  C_7
REMARK    3  A    between atoms: C_14  and  N_15
REMARK    4  A    between atoms: N_15  and  C_16
REMARK    5  A    between atoms: C_16  and  C_17
REMARK    6  A    between atoms: C_17  and  C_18
REMARK    7  A    between atoms: C_18  and  C_19
REMARK    8  A    between atoms: C_19  and  S_20
REMARK    9  A    between atoms: S_20  and  C_21
REMARK   10  A    between atoms: C_21  and  C_22
REMARK   11  A    between atoms: C_23  and  O_38
REMARK   12  A    between atoms: C_24  and  O_37
REMARK   13  A    between atoms: C_25  and  N_27
REMARK   14  A    between atoms: C_35  and  N_36
REMARK                            x       y       z     vdW  Elec       q    Type
REMARK                         _______ _______ _______ _____ _____    ______ ____
ROOT
ATOM      1  C   UNL     1      -2.405  12.738 -31.297  1.00  0.00    +0.103 C 
ENDROOT
BRANCH   1   2
ATOM      2  C   UNL     1      -2.299  12.244 -29.849  1.00  0.00    +0.162 C 
ATOM      3  C   UNL     1      -1.437  11.009 -29.603  1.00  0.00    +0.177 C 
ATOM      4  C   UNL     1      -1.908  10.584 -28.218  1.00  0.00    +0.195 C 
ATOM      5  C   UNL     1      -3.380  11.022 -28.197  1.00  0.00    +0.253 C 
ATOM      6  O   UNL     1      -3.591  11.945 -29.293  1.00  0.00    -0.347 OA
BRANCH   5   7
ATOM      7  N   UNL     1      -4.376   9.978 -28.296  1.00  0.00    -0.286 N 
ATOM      8  C   UNL     1      -4.909   9.523 -29.476  1.00  0.00    +0.203 A 
ATOM      9  N   UNL     1      -5.778   8.553 -29.287  1.00  0.00    -0.231 NA
ATOM     10  C   UNL     1      -5.796   8.362 -27.921  1.00  0.00    +0.147 A 
ATOM     11  C   UNL     1      -4.934   9.244 -27.288  1.00  0.00    +0.167 A 
ATOM     12  N   UNL     1      -4.707   9.341 -25.967  1.00  0.00    -0.216 NA
ATOM     13  C   UNL     1      -5.433   8.434 -25.283  1.00  0.00    +0.225 A 
ATOM     14  N   UNL     1      -6.304   7.522 -25.763  1.00  0.00    -0.219 NA
ATOM     15  C   UNL     1      -6.505   7.469 -27.100  1.00  0.00    +0.147 A 
BRANCH  15  16
ATOM     16  N   UNL     1      -7.393   6.540 -27.590  1.00  0.00    -0.341 N 
ATOM     17  H   UNL     1      -7.045   5.648 -27.912  1.00  0.00    +0.144 HD
ATOM     18  H   UNL     1      -8.372   6.774 -27.600  1.00  0.00    +0.144 HD
ENDBRANCH  15  16
ENDBRANCH   5   7
BRANCH   4  19
ATOM     19  O   UNL     1      -1.160  11.314 -27.225  1.00  0.00    -0.385 OA
ATOM     20  H   UNL     1      -1.258  10.787 -26.403  1.00  0.00    +0.210 HD
ENDBRANCH   4  19
BRANCH   3  21
ATOM     21  O   UNL     1      -0.039  11.294 -29.598  1.00  0.00    -0.386 OA
ATOM     22  H   UNL     1       0.421  10.435 -29.544  1.00  0.00    +0.210 HD
ENDBRANCH   3  21
ENDBRANCH   1   2
BRANCH   1  23
ATOM     23  S   UNL     1      -4.060  13.282 -31.860  1.00  0.00    -0.158 S 
BRANCH  23  24
ATOM     24  C   UNL     1      -3.614  14.231 -33.356  1.00  0.00    +0.069 C 
BRANCH  24  25
ATOM     25  C   UNL     1      -2.429  15.172 -33.136  1.00  0.00    +0.012 C 
BRANCH  25  26
ATOM     26  C   UNL     1      -2.688  16.268 -32.096  1.00  0.00    +0.016 C 
BRANCH  26  27
ATOM     27  C   UNL     1      -3.447  17.466 -32.677  1.00  0.00    +0.081 C 
BRANCH  27  28
ATOM     28  N   UNL     1      -2.519  18.436 -33.262  1.00  0.00    -0.312 NA
ATOM     29  H   UNL     1      -3.025  19.015 -33.932  1.00  0.00    +0.122 HD
BRANCH  28  30
ATOM     30  C   UNL     1      -1.917  19.309 -32.250  1.00  0.00    +0.116 C 
BRANCH  30  33
ATOM     31  C   UNL     1      -3.997  22.410 -33.011  1.00  0.00    +0.001 A 
ATOM     32  C   UNL     1      -3.361  21.177 -33.152  1.00  0.00    +0.005 A 
ATOM     33  C   UNL     1      -2.622  20.637 -32.093  1.00  0.00    -0.033 A 
ATOM     34  C   UNL     1      -2.521  21.367 -30.896  1.00  0.00    +0.013 A 
ATOM     35  C   UNL     1      -3.158  22.609 -30.730  1.00  0.00    -0.018 A 
ATOM     36  C   UNL     1      -3.896  23.117 -31.811  1.00  0.00    +0.008 A 
BRANCH  35  37
ATOM     37  C   UNL     1      -3.054  23.353 -29.464  1.00  0.00    -0.018 A 
ATOM     38  C   UNL     1      -3.359  22.738 -28.237  1.00  0.00    +0.010 A 
ATOM     39  C   UNL     1      -3.261  23.444 -27.032  1.00  0.00    +0.020 A 
ATOM     40  C   UNL     1      -2.859  24.775 -27.043  1.00  0.00    +0.041 A 
ATOM     41  C   UNL     1      -2.553  25.408 -28.245  1.00  0.00    +0.020 A 
ATOM     42  C   UNL     1      -2.651  24.699 -29.446  1.00  0.00    +0.010 A 
ATOM     43 CL   UNL     1      -2.738  25.645 -25.563  1.00  0.00    -0.084 Cl
ENDBRANCH  35  37
ENDBRANCH  30  33
ENDBRANCH  28  30
ENDBRANCH  27  28
ENDBRANCH  26  27
ENDBRANCH  25  26
ENDBRANCH  24  25
ENDBRANCH  23  24
ENDBRANCH   1  23
TORSDOF 14
ENDMDL
MODEL 6
REMARK VINA RESULT:    -7.937      1.632      2.634
REMARK INTER + INTRA:         -15.304
REMARK INTER:                 -14.031
REMARK INTRA:                  -1.273
REMARK UNBOUND:                -1.567
REMARK  Name = 
REMARK  14 active torsions:
REMARK  status: ('A' for Active; 'I' for Inactive)
REMARK    1  A    between atoms: C_3  and  C_14
REMARK    2  A    between atoms: C_5  and  C_7
REMARK    3  A    between atoms: C_14  and  N_15
REMARK    4  A    between atoms: N_15  and  C_16
REMARK    5  A    between atoms: C_16  and  C_17
REMARK    6  A    between atoms: C_17  and  C_18
REMARK    7  A    between atoms: C_18  and  C_19
REMARK    8  A    between atoms: C_19  and  S_20
REMARK    9  A    between atoms: S_20  and  C_21
REMARK   10  A    between atoms: C_21  and  C_22
REMARK   11  A    between atoms: C_23  and  O_38
REMARK   12  A    between atoms: C_24  and  O_37
REMARK   13  A    between atoms: C_25  and  N_27
REMARK   14  A    between atoms: C_35  and  N_36
REMARK                            x       y       z     vdW  Elec       q    Type
REMARK                         _______ _______ _______ _____ _____    ______ ____
ROOT
ATOM      1  C   UNL     1       1.504  14.543 -31.698  1.00  0.00    +0.103 C 
ENDROOT
BRANCH   1   2
ATOM      2  C   UNL     1       0.437  13.462 -31.487  1.00  0.00    +0.162 C 
ATOM      3  C   UNL     1       0.396  12.326 -32.505  1.00  0.00    +0.177 C 
ATOM      4  C   UNL     1      -0.983  11.735 -32.242  1.00  0.00    +0.195 C 
ATOM      5  C   UNL     1      -1.807  12.951 -31.792  1.00  0.00    +0.253 C 
ATOM      6  O   UNL     1      -0.888  14.020 -31.458  1.00  0.00    -0.347 OA
BRANCH   5   7
ATOM      7  N   UNL     1      -2.773  13.473 -32.734  1.00  0.00    -0.286 N 
ATOM      8  C   UNL     1      -3.202  14.777 -32.763  1.00  0.00    +0.203 A 
ATOM      9  N   UNL     1      -4.065  14.994 -33.732  1.00  0.00    -0.231 NA
ATOM     10  C   UNL     1      -4.186  13.777 -34.370  1.00  0.00    +0.147 A 
ATOM     11  C   UNL     1      -3.393  12.818 -33.759  1.00  0.00    +0.167 A 
ATOM     12  N   UNL     1      -3.273  11.527 -34.112  1.00  0.00    -0.216 NA
ATOM     13  C   UNL     1      -4.034  11.246 -35.189  1.00  0.00    +0.225 A 
ATOM     14  N   UNL     1      -4.847  12.073 -35.880  1.00  0.00    -0.219 NA
ATOM     15  C   UNL     1      -4.941  13.362 -35.481  1.00  0.00    +0.147 A 
BRANCH  15  16
ATOM     16  N   UNL     1      -5.770  14.205 -36.184  1.00  0.00    -0.341 N 
ATOM     17  H   UNL     1      -5.886  15.157 -35.868  1.00  0.00    +0.144 HD
ATOM     18  H   UNL     1      -6.228  13.848 -37.006  1.00  0.00    +0.144 HD
ENDBRANCH  15  16
ENDBRANCH   5   7
BRANCH   4  19
ATOM     19  O   UNL     1      -0.886  10.780 -31.167  1.00  0.00    -0.385 OA
ATOM     20  H   UNL     1      -1.786  10.396 -31.093  1.00  0.00    +0.210 HD
ENDBRANCH   4  19
BRANCH   3  21
ATOM     21  O   UNL     1       1.415  11.350 -32.296  1.00  0.00    -0.386 OA
ATOM     22  H   UNL     1       1.484  10.836 -33.123  1.00  0.00    +0.210 HD
ENDBRANCH   3  21
ENDBRANCH   1   2
BRANCH   1  23
ATOM     23  S   UNL     1       1.277  16.111 -30.780  1.00  0.00    -0.158 S 
BRANCH  23  24
ATOM     24  C   UNL     1       1.803  17.323 -32.041  1.00  0.00    +0.069 C 
BRANCH  24  25
ATOM     25  C   UNL     1       1.016  18.632 -31.976  1.00  0.00    +0.012 C 
BRANCH  25  26
ATOM     26  C   UNL     1       0.077  18.856 -33.168  1.00  0.00    +0.016 C 
BRANCH  26  27
ATOM     27  C   UNL     1      -1.092  17.864 -33.194  1.00  0.00    +0.081 C 
BRANCH  27  28
ATOM     28  N   UNL     1      -2.372  18.571 -33.257  1.00  0.00    -0.312 NA
ATOM     29  H   UNL     1      -3.083  17.937 -33.619  1.00  0.00    +0.122 HD
BRANCH  28  30
ATOM     30  C   UNL     1      -2.804  19.057 -31.943  1.00  0.00    +0.116 C 
BRANCH  30  33
ATOM     31  C   UNL     1      -3.950  22.521 -33.042  1.00  0.00    +0.001 A 
ATOM     32  C   UNL     1      -3.654  21.159 -33.061  1.00  0.00    +0.005 A 
ATOM     33  C   UNL     1      -3.143  20.530 -31.920  1.00  0.00    -0.033 A 
ATOM     34  C   UNL     1      -2.920  21.300 -30.764  1.00  0.00    +0.013 A 
ATOM     35  C   UNL     1      -3.216  22.673 -30.722  1.00  0.00    -0.018 A 
ATOM     36  C   UNL     1      -3.734  23.269 -31.883  1.00  0.00    +0.008 A 
BRANCH  35  37
ATOM     37  C   UNL     1      -2.990  23.461 -29.499  1.00  0.00    -0.018 A 
ATOM     38  C   UNL     1      -3.255  22.918 -28.229  1.00  0.00    +0.010 A 
ATOM     39  C   UNL     1      -3.042  23.665 -27.066  1.00  0.00    +0.020 A 
ATOM     40  C   UNL     1      -2.562  24.967 -27.160  1.00  0.00    +0.041 A 
ATOM     41  C   UNL     1      -2.293  25.530 -28.405  1.00  0.00    +0.020 A 
ATOM     42  C   UNL     1      -2.507  24.779 -29.565  1.00  0.00    +0.010 A 
ATOM     43 CL   UNL     1      -2.299  25.888 -25.730  1.00  0.00    -0.084 Cl
ENDBRANCH  35  37
ENDBRANCH  30  33
ENDBRANCH  28  30
ENDBRANCH  27  28
ENDBRANCH  26  27
ENDBRANCH  25  26
ENDBRANCH  24  25
ENDBRANCH  23  24
ENDBRANCH   1  23
TORSDOF 14
ENDMDL
MODEL 7
REMARK VINA RESULT:    -7.782      3.964      6.197
REMARK INTER + INTRA:         -15.036
REMARK INTER:                 -13.549
REMARK INTRA:                  -1.486
REMARK UNBOUND:                -1.567
REMARK  Name = 
REMARK  14 active torsions:
REMARK  status: ('A' for Active; 'I' for Inactive)
REMARK    1  A    between atoms: C_3  and  C_14
REMARK    2  A    between atoms: C_5  and  C_7
REMARK    3  A    between atoms: C_14  and  N_15
REMARK    4  A    between atoms: N_15  and  C_16
REMARK    5  A    between atoms: C_16  and  C_17
REMARK    6  A    between atoms: C_17  and  C_18
REMARK    7  A    between atoms: C_18  and  C_19
REMARK    8  A    between atoms: C_19  and  S_20
REMARK    9  A    between atoms: S_20  and  C_21
REMARK   10  A    between atoms: C_21  and  C_22
REMARK   11  A    between atoms: C_23  and  O_38
REMARK   12  A    between atoms: C_24  and  O_37
REMARK   13  A    between atoms: C_25  and  N_27
REMARK   14  A    between atoms: C_35  and  N_36
REMARK                            x       y       z     vdW  Elec       q    Type
REMARK                         _______ _______ _______ _____ _____    ______ ____
ROOT
ATOM      1  C   UNL     1      -0.963  11.156 -31.741  1.00  0.00    +0.103 C 
ENDROOT
BRANCH   1   2
ATOM      2  C   UNL     1      -1.070  11.626 -30.286  1.00  0.00    +0.162 C 
ATOM      3  C   UNL     1      -0.316  10.809 -29.240  1.00  0.00    +0.177 C 
ATOM      4  C   UNL     1      -0.982  11.279 -27.953  1.00  0.00    +0.195 C 
ATOM      5  C   UNL     1      -2.419  11.596 -28.396  1.00  0.00    +0.253 C 
ATOM      6  O   UNL     1      -2.437  11.676 -29.842  1.00  0.00    -0.347 OA
BRANCH   5   7
ATOM      7  N   UNL     1      -3.451  10.667 -27.989  1.00  0.00    -0.286 N 
ATOM      8  C   UNL     1      -4.018   9.727 -28.814  1.00  0.00    +0.203 A 
ATOM      9  N   UNL     1      -4.915   8.996 -28.188  1.00  0.00    -0.231 NA
ATOM     10  C   UNL     1      -4.916   9.475 -26.894  1.00  0.00    +0.147 A 
ATOM     11  C   UNL     1      -4.014  10.519 -26.754  1.00  0.00    +0.167 A 
ATOM     12  N   UNL     1      -3.762  11.221 -25.637  1.00  0.00    -0.216 NA
ATOM     13  C   UNL     1      -4.506  10.774 -24.605  1.00  0.00    +0.225 A 
ATOM     14  N   UNL     1      -5.414   9.776 -24.596  1.00  0.00    -0.219 NA
ATOM     15  C   UNL     1      -5.639   9.104 -25.748  1.00  0.00    +0.147 A 
BRANCH  15  16
ATOM     16  N   UNL     1      -6.566   8.087 -25.741  1.00  0.00    -0.341 N 
ATOM     17  H   UNL     1      -6.502   7.368 -25.035  1.00  0.00    +0.144 HD
ATOM     18  H   UNL     1      -7.295   8.100 -26.436  1.00  0.00    +0.144 HD
ENDBRANCH  15  16
ENDBRANCH   5   7
BRANCH   4  19
ATOM     19  O   UNL     1      -0.329  12.480 -27.499  1.00  0.00    -0.385 OA
ATOM     20  H   UNL     1       0.523  12.500 -27.986  1.00  0.00    +0.210 HD
ENDBRANCH   4  19
BRANCH   3  21
ATOM     21  O   UNL     1       1.084  11.085 -29.217  1.00  0.00    -0.386 OA
ATOM     22  H   UNL     1       1.521  10.352 -29.689  1.00  0.00    +0.210 HD
ENDBRANCH   3  21
ENDBRANCH   1   2
BRANCH   1  23
ATOM     23  S   UNL     1      -1.905  12.113 -32.986  1.00  0.00    -0.158 S 
BRANCH  23  24
ATOM     24  C   UNL     1      -3.527  11.280 -32.899  1.00  0.00    +0.069 C 
BRANCH  24  25
ATOM     25  C   UNL     1      -4.300  11.338 -34.218  1.00  0.00    +0.012 C 
BRANCH  25  26
ATOM     26  C   UNL     1      -3.976  12.566 -35.076  1.00  0.00    +0.016 C 
BRANCH  26  27
ATOM     27  C   UNL     1      -4.935  13.735 -34.821  1.00  0.00    +0.081 C 
BRANCH  27  28
ATOM     28  N   UNL     1      -4.194  14.979 -34.610  1.00  0.00    -0.312 NA
ATOM     29  H   UNL     1      -4.699  15.745 -35.055  1.00  0.00    +0.122 HD
BRANCH  28  30
ATOM     30  C   UNL     1      -4.028  15.293 -33.187  1.00  0.00    +0.116 C 
BRANCH  30  33
ATOM     31  C   UNL     1      -0.660  17.015 -32.731  1.00  0.00    +0.001 A 
ATOM     32  C   UNL     1      -1.621  16.042 -32.999  1.00  0.00    +0.005 A 
ATOM     33  C   UNL     1      -2.984  16.351 -32.914  1.00  0.00    -0.033 A 
ATOM     34  C   UNL     1      -3.361  17.652 -32.539  1.00  0.00    +0.013 A 
ATOM     35  C   UNL     1      -2.409  18.650 -32.268  1.00  0.00    -0.018 A 
ATOM     36  C   UNL     1      -1.051  18.306 -32.371  1.00  0.00    +0.008 A 
BRANCH  35  37
ATOM     37  C   UNL     1      -2.822  20.011 -31.891  1.00  0.00    -0.018 A 
ATOM     38  C   UNL     1      -2.675  20.472 -30.570  1.00  0.00    +0.010 A 
ATOM     39  C   UNL     1      -3.067  21.765 -30.209  1.00  0.00    +0.020 A 
ATOM     40  C   UNL     1      -3.614  22.614 -31.166  1.00  0.00    +0.041 A 
ATOM     41  C   UNL     1      -3.772  22.182 -32.481  1.00  0.00    +0.020 A 
ATOM     42  C   UNL     1      -3.377  20.888 -32.838  1.00  0.00    +0.010 A 
ATOM     43 CL   UNL     1      -4.097  24.205 -30.725  1.00  0.00    -0.084 Cl
ENDBRANCH  35  37
ENDBRANCH  30  33
ENDBRANCH  28  30
ENDBRANCH  27  28
ENDBRANCH  26  27
ENDBRANCH  25  26
ENDBRANCH  24  25
ENDBRANCH  23  24
ENDBRANCH   1  23
TORSDOF 14
ENDMDL
MODEL 8
REMARK VINA RESULT:    -7.624      3.996     10.470
REMARK INTER + INTRA:         -14.762
REMARK INTER:                 -13.415
REMARK INTRA:                  -1.347
REMARK UNBOUND:                -1.567
REMARK  Name = 
REMARK  14 active torsions:
REMARK  status: ('A' for Active; 'I' for Inactive)
REMARK    1  A    between atoms: C_3  and  C_14
REMARK    2  A    between atoms: C_5  and  C_7
REMARK    3  A    between atoms: C_14  and  N_15
REMARK    4  A    between atoms: N_15  and  C_16
REMARK    5  A    between atoms: C_16  and  C_17
REMARK    6  A    between atoms: C_17  and  C_18
REMARK    7  A    between atoms: C_18  and  C_19
REMARK    8  A    between atoms: C_19  and  S_20
REMARK    9  A    between atoms: S_20  and  C_21
REMARK   10  A    between atoms: C_21  and  C_22
REMARK   11  A    between atoms: C_23  and  O_38
REMARK   12  A    between atoms: C_24  and  O_37
REMARK   13  A    between atoms: C_25  and  N_27
REMARK   14  A    between atoms: C_35  and  N_36
REMARK                            x       y       z     vdW  Elec       q    Type
REMARK                         _______ _______ _______ _____ _____    ______ ____
ROOT
ATOM      1  C   UNL     1      -2.852  15.501 -31.462  1.00  0.00    +0.103 C 
ENDROOT
BRANCH   1   2
ATOM      2  C   UNL     1      -2.365  16.582 -32.433  1.00  0.00    +0.162 C 
ATOM      3  C   UNL     1      -0.962  17.136 -32.202  1.00  0.00    +0.177 C 
ATOM      4  C   UNL     1      -1.004  18.417 -33.026  1.00  0.00    +0.195 C 
ATOM      5  C   UNL     1      -2.475  18.847 -32.933  1.00  0.00    +0.253 C 
ATOM      6  O   UNL     1      -3.245  17.720 -32.448  1.00  0.00    -0.347 OA
BRANCH   5   7
ATOM      7  N   UNL     1      -2.774  19.985 -32.091  1.00  0.00    -0.286 N 
ATOM      8  C   UNL     1      -2.589  20.014 -30.731  1.00  0.00    +0.203 A 
ATOM      9  N   UNL     1      -2.918  21.176 -30.210  1.00  0.00    -0.231 NA
ATOM     10  C   UNL     1      -3.319  21.940 -31.287  1.00  0.00    +0.147 A 
ATOM     11  C   UNL     1      -3.240  21.213 -32.465  1.00  0.00    +0.167 A 
ATOM     12  N   UNL     1      -3.559  21.640 -33.698  1.00  0.00    -0.216 NA
ATOM     13  C   UNL     1      -3.971  22.923 -33.675  1.00  0.00    +0.225 A 
ATOM     14  N   UNL     1      -4.096  23.746 -32.612  1.00  0.00    -0.219 NA
ATOM     15  C   UNL     1      -3.771  23.267 -31.390  1.00  0.00    +0.147 A 
BRANCH  15  16
ATOM     16  N   UNL     1      -3.898  24.103 -30.305  1.00  0.00    -0.341 N 
ATOM     17  H   UNL     1      -3.075  24.552 -29.930  1.00  0.00    +0.144 HD
ATOM     18  H   UNL     1      -4.818  24.256 -29.925  1.00  0.00    +0.144 HD
ENDBRANCH  15  16
ENDBRANCH   5   7
BRANCH   4  19
ATOM     19  O   UNL     1      -0.665  18.106 -34.393  1.00  0.00    -0.385 OA
ATOM     20  H   UNL     1      -0.406  17.160 -34.375  1.00  0.00    +0.210 HD
ENDBRANCH   4  19
BRANCH   3  21
ATOM     21  O   UNL     1       0.068  16.266 -32.670  1.00  0.00    -0.386 OA
ATOM     22  H   UNL     1       0.526  15.925 -31.878  1.00  0.00    +0.210 HD
ENDBRANCH   3  21
ENDBRANCH   1   2
BRANCH   1  23
ATOM     23  S   UNL     1      -2.425  13.770 -31.879  1.00  0.00    -0.158 S 
BRANCH  23  24
ATOM     24  C   UNL     1      -4.078  13.098 -32.272  1.00  0.00    +0.069 C 
BRANCH  24  25
ATOM     25  C   UNL     1      -4.049  12.065 -33.400  1.00  0.00    +0.012 C 
BRANCH  25  26
ATOM     26  C   UNL     1      -4.932  10.838 -33.142  1.00  0.00    +0.016 C 
BRANCH  26  27
ATOM     27  C   UNL     1      -4.465  10.017 -31.934  1.00  0.00    +0.081 C 
BRANCH  27  28
ATOM     28  N   UNL     1      -5.307  10.285 -30.767  1.00  0.00    -0.312 NA
ATOM     29  H   UNL     1      -6.286  10.265 -31.053  1.00  0.00    +0.122 HD
BRANCH  28  30
ATOM     30  C   UNL     1      -5.111   9.298 -29.701  1.00  0.00    +0.116 C 
BRANCH  30  33
ATOM     31  C   UNL     1      -4.265  10.218 -26.102  1.00  0.00    +0.001 A 
ATOM     32  C   UNL     1      -4.929   9.700 -27.212  1.00  0.00    +0.005 A 
ATOM     33  C   UNL     1      -4.383   9.842 -28.493  1.00  0.00    -0.033 A 
ATOM     34  C   UNL     1      -3.164  10.528 -28.638  1.00  0.00    +0.013 A 
ATOM     35  C   UNL     1      -2.476  11.054 -27.531  1.00  0.00    -0.018 A 
ATOM     36  C   UNL     1      -3.050  10.886 -26.261  1.00  0.00    +0.008 A 
BRANCH  35  37
ATOM     37  C   UNL     1      -1.193  11.757 -27.699  1.00  0.00    -0.018 A 
ATOM     38  C   UNL     1      -0.744  12.150 -28.973  1.00  0.00    +0.010 A 
ATOM     39  C   UNL     1       0.474  12.817 -29.135  1.00  0.00    +0.020 A 
ATOM     40  C   UNL     1       1.260  13.099 -28.022  1.00  0.00    +0.041 A 
ATOM     41  C   UNL     1       0.840  12.720 -26.750  1.00  0.00    +0.020 A 
ATOM     42  C   UNL     1      -0.379  12.053 -26.592  1.00  0.00    +0.010 A 
ATOM     43 CL   UNL     1       2.760  13.921 -28.219  1.00  0.00    -0.084 Cl
ENDBRANCH  35  37
ENDBRANCH  30  33
ENDBRANCH  28  30
ENDBRANCH  27  28
ENDBRANCH  26  27
ENDBRANCH  25  26
ENDBRANCH  24  25
ENDBRANCH  23  24
ENDBRANCH   1  23
TORSDOF 14
ENDMDL
MODEL 9
REMARK VINA RESULT:    -7.610      4.573     11.797
REMARK INTER + INTRA:         -14.738
REMARK INTER:                 -13.337
REMARK INTRA:                  -1.401
REMARK UNBOUND:                -1.567
REMARK  Name = 
REMARK  14 active torsions:
REMARK  status: ('A' for Active; 'I' for Inactive)
REMARK    1  A    between atoms: C_3  and  C_14
REMARK    2  A    between atoms: C_5  and  C_7
REMARK    3  A    between atoms: C_14  and  N_15
REMARK    4  A    between atoms: N_15  and  C_16
REMARK    5  A    between atoms: C_16  and  C_17
REMARK    6  A    between atoms: C_17  and  C_18
REMARK    7  A    between atoms: C_18  and  C_19
REMARK    8  A    between atoms: C_19  and  S_20
REMARK    9  A    between atoms: S_20  and  C_21
REMARK   10  A    between atoms: C_21  and  C_22
REMARK   11  A    between atoms: C_23  and  O_38
REMARK   12  A    between atoms: C_24  and  O_37
REMARK   13  A    between atoms: C_25  and  N_27
REMARK   14  A    between atoms: C_35  and  N_36
REMARK                            x       y       z     vdW  Elec       q    Type
REMARK                         _______ _______ _______ _____ _____    ______ ____
ROOT
ATOM      1  C   UNL     1      -2.862  15.551 -31.399  1.00  0.00    +0.103 C 
ENDROOT
BRANCH   1   2
ATOM      2  C   UNL     1      -2.384  16.614 -32.395  1.00  0.00    +0.162 C 
ATOM      3  C   UNL     1      -0.977  17.169 -32.190  1.00  0.00    +0.177 C 
ATOM      4  C   UNL     1      -1.026  18.434 -33.036  1.00  0.00    +0.195 C 
ATOM      5  C   UNL     1      -2.496  18.869 -32.934  1.00  0.00    +0.253 C 
ATOM      6  O   UNL     1      -3.262  17.752 -32.421  1.00  0.00    -0.347 OA
BRANCH   5   7
ATOM      7  N   UNL     1      -2.782  20.022 -32.110  1.00  0.00    -0.286 N 
ATOM      8  C   UNL     1      -2.582  20.076 -30.753  1.00  0.00    +0.203 A 
ATOM      9  N   UNL     1      -2.902  21.248 -30.249  1.00  0.00    -0.231 NA
ATOM     10  C   UNL     1      -3.314  21.993 -31.335  1.00  0.00    +0.147 A 
ATOM     11  C   UNL     1      -3.251  21.245 -32.500  1.00  0.00    +0.167 A 
ATOM     12  N   UNL     1      -3.583  21.650 -33.737  1.00  0.00    -0.216 NA
ATOM     13  C   UNL     1      -3.994  22.934 -33.733  1.00  0.00    +0.225 A 
ATOM     14  N   UNL     1      -4.104  23.776 -32.684  1.00  0.00    -0.219 NA
ATOM     15  C   UNL     1      -3.766  23.319 -31.456  1.00  0.00    +0.147 A 
BRANCH  15  16
ATOM     16  N   UNL     1      -3.879  24.175 -30.386  1.00  0.00    -0.341 N 
ATOM     17  H   UNL     1      -4.758  24.644 -30.222  1.00  0.00    +0.144 HD
ATOM     18  H   UNL     1      -3.080  24.298 -29.786  1.00  0.00    +0.144 HD
ENDBRANCH  15  16
ENDBRANCH   5   7
BRANCH   4  19
ATOM     19  O   UNL     1      -0.704  18.098 -34.401  1.00  0.00    -0.385 OA
ATOM     20  H   UNL     1       0.170  18.517 -34.560  1.00  0.00    +0.210 HD
ENDBRANCH   4  19
BRANCH   3  21
ATOM     21  O   UNL     1       0.045  16.287 -32.653  1.00  0.00    -0.386 OA
ATOM     22  H   UNL     1       0.437  16.705 -33.444  1.00  0.00    +0.210 HD
ENDBRANCH   3  21
ENDBRANCH   1   2
BRANCH   1  23
ATOM     23  S   UNL     1      -3.377  13.940 -32.100  1.00  0.00    -0.158 S 
BRANCH  23  24
ATOM     24  C   UNL     1      -3.291  14.305 -33.888  1.00  0.00    +0.069 C 
BRANCH  24  25
ATOM     25  C   UNL     1      -4.585  13.965 -34.629  1.00  0.00    +0.012 C 
BRANCH  25  26
ATOM     26  C   UNL     1      -4.745  12.475 -34.953  1.00  0.00    +0.016 C 
BRANCH  26  27
ATOM     27  C   UNL     1      -3.402  11.773 -35.186  1.00  0.00    +0.081 C 
BRANCH  27  28
ATOM     28  N   UNL     1      -3.341  10.510 -34.450  1.00  0.00    -0.312 NA
ATOM     29  H   UNL     1      -2.408  10.404 -34.052  1.00  0.00    +0.122 HD
BRANCH  28  30
ATOM     30  C   UNL     1      -4.323  10.452 -33.362  1.00  0.00    +0.116 C 
BRANCH  30  33
ATOM     31  C   UNL     1      -4.071   6.727 -32.599  1.00  0.00    +0.001 A 
ATOM     32  C   UNL     1      -4.049   7.940 -33.285  1.00  0.00    +0.005 A 
ATOM     33  C   UNL     1      -4.329   9.137 -32.616  1.00  0.00    -0.033 A 
ATOM     34  C   UNL     1      -4.647   9.090 -31.248  1.00  0.00    +0.013 A 
ATOM     35  C   UNL     1      -4.671   7.879 -30.535  1.00  0.00    -0.018 A 
ATOM     36  C   UNL     1      -4.378   6.698 -31.237  1.00  0.00    +0.008 A 
BRANCH  35  37
ATOM     37  C   UNL     1      -4.992   7.849 -29.099  1.00  0.00    -0.018 A 
ATOM     38  C   UNL     1      -4.255   8.613 -28.176  1.00  0.00    +0.010 A 
ATOM     39  C   UNL     1      -4.558   8.585 -26.811  1.00  0.00    +0.020 A 
ATOM     40  C   UNL     1      -5.603   7.790 -26.351  1.00  0.00    +0.041 A 
ATOM     41  C   UNL     1      -6.347   7.023 -27.243  1.00  0.00    +0.020 A 
ATOM     42  C   UNL     1      -6.042   7.054 -28.608  1.00  0.00    +0.010 A 
ATOM     43 CL   UNL     1      -5.978   7.756 -24.672  1.00  0.00    -0.084 Cl
ENDBRANCH  35  37
ENDBRANCH  30  33
ENDBRANCH  28  30
ENDBRANCH  27  28
ENDBRANCH  26  27
ENDBRANCH  25  26
ENDBRANCH  24  25
ENDBRANCH  23  24
ENDBRANCH   1  23
TORSDOF 14
ENDMDL
