MODEL 1
REMARK VINA RESULT:    -7.373      0.000      0.000
REMARK INTER + INTRA:         -13.400
REMARK INTER:                 -11.899
REMARK INTRA:                  -1.501
REMARK UNBOUND:                -1.501
REMARK  Name = 
REMARK  13 active torsions:
REMARK  status: ('A' for Active; 'I' for Inactive)
REMARK    1  A    between atoms: C_2  and  C_27
REMARK    2  A    between atoms: C_4  and  N_26
REMARK    3  A    between atoms: N_9  and  C_10
REMARK    4  A    between atoms: C_11  and  O_25
REMARK    5  A    between atoms: C_12  and  O_24
REMARK    6  A    between atoms: C_13  and  C_15
REMARK    7  A    between atoms: C_15  and  S_16
REMARK    8  A    between atoms: S_16  and  C_17
REMARK    9  A    between atoms: C_17  and  C_18
REMARK   10  A    between atoms: C_18  and  C_19
REMARK   11  A    between atoms: C_19  and  C_20
REMARK   12  A    between atoms: C_19  and  N_23
REMARK   13  A    between atoms: C_20  and  O_22
REMARK                            x       y       z     vdW  Elec       q    Type
REMARK                         _______ _______ _______ _____ _____    ______ ____
ROOT
ATOM      1  C   UNK     1      -2.335  19.138 -32.804  1.00  0.00    +0.252 C 
ATOM      2  C   UNK     1      -2.571  17.762 -32.174  1.00  0.00    +0.195 C 
ATOM      3  C   UNK     1      -1.517  16.933 -32.889  1.00  0.00    +0.177 C 
ATOM      4  C   UNK     1      -0.342  17.906 -32.996  1.00  0.00    +0.162 C 
ATOM      5  O   UNK     1      -0.917  19.228 -33.085  1.00  0.00    -0.347 OA
ENDROOT
BRANCH   1  14
ATOM      6  C   UNK     1      -2.677  20.255 -30.559  1.00  0.00    +0.110 A 
ATOM      7  C   UNK     1      -3.143  21.483 -30.136  1.00  0.00    +0.082 A 
ATOM      8  C   UNK     1      -3.478  22.248 -31.286  1.00  0.00    +0.076 A 
ATOM      9  C   UNK     1      -3.987  23.529 -31.550  1.00  0.00    +0.130 A 
ATOM     10  N   UNK     1      -4.172  23.899 -32.833  1.00  0.00    -0.220 NA
ATOM     11  C   UNK     1      -3.859  23.023 -33.807  1.00  0.00    +0.225 A 
ATOM     12  N   UNK     1      -3.362  21.783 -33.676  1.00  0.00    -0.217 NA
ATOM     13  C   UNK     1      -3.197  21.447 -32.387  1.00  0.00    +0.149 A 
ATOM     14  N   UNK     1      -2.718  20.242 -31.934  1.00  0.00    -0.302 N 
BRANCH   9  15
ATOM     15  N   UNK     1      -4.315  24.448 -30.584  1.00  0.00    -0.342 N 
ATOM     16  H   UNK     1      -3.656  25.096 -30.185  1.00  0.00    +0.144 HD
ATOM     17  H   UNK     1      -5.278  24.451 -30.278  1.00  0.00    +0.144 HD
ENDBRANCH   9  15
BRANCH   7  18
ATOM     18  C   UNK     1      -3.258  21.899 -28.775  1.00  0.00    +0.101 C 
ATOM     19  N   UNK     1      -3.310  22.241 -27.667  1.00  0.00    -0.191 NA
ENDBRANCH   7  18
ENDBRANCH   1  14
BRANCH   3  20
ATOM     20  O   UNK     1      -2.029  16.608 -34.195  1.00  0.00    -0.386 OA
ATOM     21  H   UNK     1      -2.509  17.389 -34.529  1.00  0.00    +0.210 HD
ENDBRANCH   3  20
BRANCH   2  22
ATOM     22  O   UNK     1      -3.871  17.223 -32.384  1.00  0.00    -0.385 OA
ATOM     23  H   UNK     1      -4.256  17.733 -33.127  1.00  0.00    +0.210 HD
ENDBRANCH   2  22
BRANCH   4  24
ATOM     24  C   UNK     1       0.583  17.804 -31.772  1.00  0.00    +0.103 C 
BRANCH  24  25
ATOM     25  S   UNK     1       1.612  19.276 -31.416  1.00  0.00    -0.158 S 
BRANCH  25  26
ATOM     26  C   UNK     1       1.181  19.644 -29.679  1.00  0.00    +0.071 C 
BRANCH  26  27
ATOM     27  C   UNK     1       0.672  21.070 -29.473  1.00  0.00    +0.040 C 
BRANCH  27  28
ATOM     28  C   UNK     1       1.719  21.976 -28.806  1.00  0.00    +0.161 C 
BRANCH  28  29
ATOM     29  N   UNK     1       2.249  22.952 -29.780  1.00  0.00    -0.318 NA
ATOM     30  H   UNK     1       2.275  22.510 -30.704  1.00  0.00    +0.119 HD
ATOM     31  H   UNK     1       1.617  23.746 -29.864  1.00  0.00    +0.119 HD
ENDBRANCH  28  29
BRANCH  28  32
ATOM     32  C   UNK     1       1.136  22.725 -27.596  1.00  0.00    +0.322 C 
ATOM     33  O   UNK     1       1.734  23.023 -26.573  1.00  0.00    -0.249 OA
BRANCH  32  34
ATOM     34  O   UNK     1      -0.188  22.966 -27.692  1.00  0.00    -0.480 OA
ATOM     35  H   UNK     1      -0.241  23.943 -27.621  1.00  0.00    +0.295 HD
ENDBRANCH  32  34
ENDBRANCH  28  32
ENDBRANCH  27  28
ENDBRANCH  26  27
ENDBRANCH  25  26
ENDBRANCH  24  25
ENDBRANCH   4  24
TORSDOF 13
ENDMDL
MODEL 2
REMARK VINA RESULT:    -7.257      2.803      4.680
REMARK INTER + INTRA:         -13.212
REMARK INTER:                 -12.093
REMARK INTRA:                  -1.119
REMARK UNBOUND:                -1.501
REMARK  Name = 
REMARK  13 active torsions:
REMARK  status: ('A' for Active; 'I' for Inactive)
REMARK    1  A    between atoms: C_2  and  C_27
REMARK    2  A    between atoms: C_4  and  N_26
REMARK    3  A    between atoms: N_9  and  C_10
REMARK    4  A    between atoms: C_11  and  O_25
REMARK    5  A    between atoms: C_12  and  O_24
REMARK    6  A    between atoms: C_13  and  C_15
REMARK    7  A    between atoms: C_15  and  S_16
REMARK    8  A    between atoms: S_16  and  C_17
REMARK    9  A    between atoms: C_17  and  C_18
REMARK   10  A    between atoms: C_18  and  C_19
REMARK   11  A    between atoms: C_19  and  C_20
REMARK   12  A    between atoms: C_19  and  N_23
REMARK   13  A    between atoms: C_20  and  O_22
REMARK                            x       y       z     vdW  Elec       q    Type
REMARK                         _______ _______ _______ _____ _____    ______ ____
ROOT
ATOM      1  C   UNK     1      -2.354  19.181 -32.797  1.00  0.00    +0.252 C 
ATOM      2  C   UNK     1      -2.480  17.811 -32.125  1.00  0.00    +0.195 C 
ATOM      3  C   UNK     1      -1.422  17.022 -32.879  1.00  0.00    +0.177 C 
ATOM      4  C   UNK     1      -0.309  18.054 -33.069  1.00  0.00    +0.162 C 
ATOM      5  O   UNK     1      -0.959  19.341 -33.155  1.00  0.00    -0.347 OA
ENDROOT
BRANCH   1  14
ATOM      6  C   UNK     1      -2.714  20.301 -30.555  1.00  0.00    +0.110 A 
ATOM      7  C   UNK     1      -3.193  21.526 -30.137  1.00  0.00    +0.082 A 
ATOM      8  C   UNK     1      -3.533  22.284 -31.291  1.00  0.00    +0.076 A 
ATOM      9  C   UNK     1      -4.054  23.559 -31.559  1.00  0.00    +0.130 A 
ATOM     10  N   UNK     1      -4.239  23.923 -32.844  1.00  0.00    -0.220 NA
ATOM     11  C   UNK     1      -3.914  23.048 -33.815  1.00  0.00    +0.225 A 
ATOM     12  N   UNK     1      -3.405  21.814 -33.679  1.00  0.00    -0.217 NA
ATOM     13  C   UNK     1      -3.241  21.483 -32.389  1.00  0.00    +0.149 A 
ATOM     14  N   UNK     1      -2.750  20.283 -31.930  1.00  0.00    -0.302 N 
BRANCH   9  15
ATOM     15  N   UNK     1      -4.395  24.477 -30.597  1.00  0.00    -0.342 N 
ATOM     16  H   UNK     1      -5.030  25.241 -30.757  1.00  0.00    +0.144 HD
ATOM     17  H   UNK     1      -3.969  24.352 -29.690  1.00  0.00    +0.144 HD
ENDBRANCH   9  15
BRANCH   7  18
ATOM     18  C   UNK     1      -3.317  21.944 -28.778  1.00  0.00    +0.101 C 
ATOM     19  N   UNK     1      -3.375  22.282 -27.669  1.00  0.00    -0.191 NA
ENDBRANCH   7  18
ENDBRANCH   1  14
BRANCH   3  20
ATOM     20  O   UNK     1      -1.983  16.639 -34.148  1.00  0.00    -0.386 OA
ATOM     21  H   UNK     1      -2.884  17.009 -34.198  1.00  0.00    +0.210 HD
ENDBRANCH   3  20
BRANCH   2  22
ATOM     22  O   UNK     1      -3.758  17.198 -32.254  1.00  0.00    -0.385 OA
ATOM     23  H   UNK     1      -4.043  16.978 -31.343  1.00  0.00    +0.210 HD
ENDBRANCH   2  22
BRANCH   4  24
ATOM     24  C   UNK     1       0.683  18.031 -31.895  1.00  0.00    +0.103 C 
BRANCH  24  25
ATOM     25  S   UNK     1       1.875  16.641 -31.875  1.00  0.00    -0.158 S 
BRANCH  25  26
ATOM     26  C   UNK     1       1.326  15.675 -30.425  1.00  0.00    +0.071 C 
BRANCH  26  27
ATOM     27  C   UNK     1       1.344  14.166 -30.663  1.00  0.00    +0.040 C 
BRANCH  27  28
ATOM     28  C   UNK     1      -0.061  13.595 -30.913  1.00  0.00    +0.161 C 
BRANCH  28  29
ATOM     29  N   UNK     1      -1.092  14.555 -30.470  1.00  0.00    -0.318 NA
ATOM     30  H   UNK     1      -1.621  14.135 -29.699  1.00  0.00    +0.119 HD
ATOM     31  H   UNK     1      -0.655  15.393 -30.090  1.00  0.00    +0.119 HD
ENDBRANCH  28  29
BRANCH  28  32
ATOM     32  C   UNK     1      -0.281  13.255 -32.397  1.00  0.00    +0.322 C 
ATOM     33  O   UNK     1       0.515  12.696 -33.137  1.00  0.00    -0.249 OA
BRANCH  32  34
ATOM     34  O   UNK     1      -1.442  13.727 -32.897  1.00  0.00    -0.480 OA
ATOM     35  H   UNK     1      -1.173  14.566 -33.329  1.00  0.00    +0.295 HD
ENDBRANCH  32  34
ENDBRANCH  28  32
ENDBRANCH  27  28
ENDBRANCH  26  27
ENDBRANCH  25  26
ENDBRANCH  24  25
ENDBRANCH   4  24
TORSDOF 13
ENDMDL
MODEL 3
REMARK VINA RESULT:    -6.612      2.758      3.536
REMARK INTER + INTRA:         -12.171
REMARK INTER:                 -11.329
REMARK INTRA:                  -0.842
REMARK UNBOUND:                -1.501
REMARK  Name = 
REMARK  13 active torsions:
REMARK  status: ('A' for Active; 'I' for Inactive)
REMARK    1  A    between atoms: C_2  and  C_27
REMARK    2  A    between atoms: C_4  and  N_26
REMARK    3  A    between atoms: N_9  and  C_10
REMARK    4  A    between atoms: C_11  and  O_25
REMARK    5  A    between atoms: C_12  and  O_24
REMARK    6  A    between atoms: C_13  and  C_15
REMARK    7  A    between atoms: C_15  and  S_16
REMARK    8  A    between atoms: S_16  and  C_17
REMARK    9  A    between atoms: C_17  and  C_18
REMARK   10  A    between atoms: C_18  and  C_19
REMARK   11  A    between atoms: C_19  and  C_20
REMARK   12  A    between atoms: C_19  and  N_23
REMARK   13  A    between atoms: C_20  and  O_22
REMARK                            x       y       z     vdW  Elec       q    Type
REMARK                         _______ _______ _______ _____ _____    ______ ____
ROOT
ATOM      1  C   UNK     1      -2.392  19.096 -32.823  1.00  0.00    +0.252 C 
ATOM      2  C   UNK     1      -2.707  17.724 -32.220  1.00  0.00    +0.195 C 
ATOM      3  C   UNK     1      -1.667  16.858 -32.911  1.00  0.00    +0.177 C 
ATOM      4  C   UNK     1      -0.448  17.781 -32.965  1.00  0.00    +0.162 C 
ATOM      5  O   UNK     1      -0.962  19.128 -33.055  1.00  0.00    -0.347 OA
ENDROOT
BRANCH   1  14
ATOM      6  C   UNK     1      -2.707  20.217 -30.575  1.00  0.00    +0.110 A 
ATOM      7  C   UNK     1      -3.156  21.451 -30.150  1.00  0.00    +0.082 A 
ATOM      8  C   UNK     1      -3.488  22.219 -31.298  1.00  0.00    +0.076 A 
ATOM      9  C   UNK     1      -3.983  23.507 -31.559  1.00  0.00    +0.130 A 
ATOM     10  N   UNK     1      -4.170  23.878 -32.841  1.00  0.00    -0.220 NA
ATOM     11  C   UNK     1      -3.874  22.999 -33.817  1.00  0.00    +0.225 A 
ATOM     12  N   UNK     1      -3.391  21.754 -33.689  1.00  0.00    -0.217 NA
ATOM     13  C   UNK     1      -3.223  21.415 -32.401  1.00  0.00    +0.149 A 
ATOM     14  N   UNK     1      -2.756  20.204 -31.950  1.00  0.00    -0.302 N 
BRANCH   9  15
ATOM     15  N   UNK     1      -4.294  24.430 -30.591  1.00  0.00    -0.342 N 
ATOM     16  H   UNK     1      -3.605  24.911 -30.038  1.00  0.00    +0.144 HD
ATOM     17  H   UNK     1      -5.277  24.615 -30.451  1.00  0.00    +0.144 HD
ENDBRANCH   9  15
BRANCH   7  18
ATOM     18  C   UNK     1      -3.258  21.867 -28.789  1.00  0.00    +0.101 C 
ATOM     19  N   UNK     1      -3.340  22.246 -27.694  1.00  0.00    -0.191 NA
ENDBRANCH   7  18
ENDBRANCH   1  14
BRANCH   3  20
ATOM     20  O   UNK     1      -2.148  16.573 -34.238  1.00  0.00    -0.386 OA
ATOM     21  H   UNK     1      -1.695  15.768 -34.551  1.00  0.00    +0.210 HD
ENDBRANCH   3  20
BRANCH   2  22
ATOM     22  O   UNK     1      -4.022  17.245 -32.481  1.00  0.00    -0.385 OA
ATOM     23  H   UNK     1      -4.160  16.494 -31.868  1.00  0.00    +0.210 HD
ENDBRANCH   2  22
BRANCH   4  24
ATOM     24  C   UNK     1       0.429  17.623 -31.713  1.00  0.00    +0.103 C 
BRANCH  24  25
ATOM     25  S   UNK     1       2.237  17.551 -31.999  1.00  0.00    -0.158 S 
BRANCH  25  26
ATOM     26  C   UNK     1       2.632  19.279 -32.442  1.00  0.00    +0.071 C 
BRANCH  26  27
ATOM     27  C   UNK     1       4.035  19.705 -32.012  1.00  0.00    +0.040 C 
BRANCH  27  28
ATOM     28  C   UNK     1       4.790  20.447 -33.126  1.00  0.00    +0.161 C 
BRANCH  28  29
ATOM     29  N   UNK     1       5.514  21.608 -32.570  1.00  0.00    -0.318 NA
ATOM     30  H   UNK     1       6.492  21.343 -32.419  1.00  0.00    +0.119 HD
ATOM     31  H   UNK     1       5.528  22.371 -33.244  1.00  0.00    +0.119 HD
ENDBRANCH  28  29
BRANCH  28  32
ATOM     32  C   UNK     1       5.783  19.524 -33.852  1.00  0.00    +0.322 C 
ATOM     33  O   UNK     1       5.533  18.431 -34.338  1.00  0.00    -0.249 OA
BRANCH  32  34
ATOM     34  O   UNK     1       7.055  19.974 -33.838  1.00  0.00    -0.480 OA
ATOM     35  H   UNK     1       7.134  20.443 -34.696  1.00  0.00    +0.295 HD
ENDBRANCH  32  34
ENDBRANCH  28  32
ENDBRANCH  27  28
ENDBRANCH  26  27
ENDBRANCH  25  26
ENDBRANCH  24  25
ENDBRANCH   4  24
TORSDOF 13
ENDMDL
MODEL 4
REMARK VINA RESULT:    -6.545      3.773      7.299
REMARK INTER + INTRA:         -12.063
REMARK INTER:                 -11.241
REMARK INTRA:                  -0.822
REMARK UNBOUND:                -1.501
REMARK  Name = 
REMARK  13 active torsions:
REMARK  status: ('A' for Active; 'I' for Inactive)
REMARK    1  A    between atoms: C_2  and  C_27
REMARK    2  A    between atoms: C_4  and  N_26
REMARK    3  A    between atoms: N_9  and  C_10
REMARK    4  A    between atoms: C_11  and  O_25
REMARK    5  A    between atoms: C_12  and  O_24
REMARK    6  A    between atoms: C_13  and  C_15
REMARK    7  A    between atoms: C_15  and  S_16
REMARK    8  A    between atoms: S_16  and  C_17
REMARK    9  A    between atoms: C_17  and  C_18
REMARK   10  A    between atoms: C_18  and  C_19
REMARK   11  A    between atoms: C_19  and  C_20
REMARK   12  A    between atoms: C_19  and  N_23
REMARK   13  A    between atoms: C_20  and  O_22
REMARK                            x       y       z     vdW  Elec       q    Type
REMARK                         _______ _______ _______ _____ _____    ______ ____
ROOT
ATOM      1  C   UNK     1      -1.862  18.729 -31.862  1.00  0.00    +0.252 C 
ATOM      2  C   UNK     1      -1.175  18.342 -33.175  1.00  0.00    +0.195 C 
ATOM      3  C   UNK     1      -1.219  16.826 -33.087  1.00  0.00    +0.177 C 
ATOM      4  C   UNK     1      -2.582  16.568 -32.442  1.00  0.00    +0.162 C 
ATOM      5  O   UNK     1      -2.851  17.705 -31.593  1.00  0.00    -0.347 OA
ENDROOT
BRANCH   1  14
ATOM      6  C   UNK     1      -2.886  20.712 -33.058  1.00  0.00    +0.110 A 
ATOM      7  C   UNK     1      -3.468  21.900 -32.665  1.00  0.00    +0.082 A 
ATOM      8  C   UNK     1      -3.465  21.944 -31.245  1.00  0.00    +0.076 A 
ATOM      9  C   UNK     1      -3.889  22.837 -30.248  1.00  0.00    +0.130 A 
ATOM     10  N   UNK     1      -3.700  22.500 -28.957  1.00  0.00    -0.220 NA
ATOM     11  C   UNK     1      -3.114  21.321 -28.678  1.00  0.00    +0.225 A 
ATOM     12  N   UNK     1      -2.678  20.390 -29.540  1.00  0.00    -0.217 NA
ATOM     13  C   UNK     1      -2.876  20.761 -30.815  1.00  0.00    +0.149 A 
ATOM     14  N   UNK     1      -2.525  20.025 -31.922  1.00  0.00    -0.302 N 
BRANCH   9  15
ATOM     15  N   UNK     1      -4.491  24.046 -30.495  1.00  0.00    -0.342 N 
ATOM     16  H   UNK     1      -4.264  24.631 -31.282  1.00  0.00    +0.144 HD
ATOM     17  H   UNK     1      -5.196  24.337 -29.833  1.00  0.00    +0.144 HD
ENDBRANCH   9  15
BRANCH   7  18
ATOM     18  C   UNK     1      -3.981  22.899 -33.546  1.00  0.00    +0.101 C 
ATOM     19  N   UNK     1      -4.431  23.687 -34.270  1.00  0.00    -0.191 NA
ENDBRANCH   7  18
ENDBRANCH   1  14
BRANCH   3  20
ATOM     20  O   UNK     1      -0.155  16.408 -32.212  1.00  0.00    -0.386 OA
ATOM     21  H   UNK     1      -0.544  16.229 -31.336  1.00  0.00    +0.210 HD
ENDBRANCH   3  20
BRANCH   2  22
ATOM     22  O   UNK     1       0.164  18.805 -33.307  1.00  0.00    -0.385 OA
ATOM     23  H   UNK     1       0.272  19.048 -34.250  1.00  0.00    +0.210 HD
ENDBRANCH   2  22
BRANCH   4  24
ATOM     24  C   UNK     1      -3.684  16.417 -33.504  1.00  0.00    +0.103 C 
BRANCH  24  25
ATOM     25  S   UNK     1      -4.225  14.706 -33.866  1.00  0.00    -0.158 S 
BRANCH  25  26
ATOM     26  C   UNK     1      -3.489  13.762 -32.485  1.00  0.00    +0.071 C 
BRANCH  26  27
ATOM     27  C   UNK     1      -3.244  12.292 -32.822  1.00  0.00    +0.040 C 
BRANCH  27  28
ATOM     28  C   UNK     1      -4.242  11.356 -32.122  1.00  0.00    +0.161 C 
BRANCH  28  29
ATOM     29  N   UNK     1      -5.103  12.121 -31.198  1.00  0.00    -0.318 NA
ATOM     30  H   UNK     1      -6.045  11.719 -31.219  1.00  0.00    +0.119 HD
ATOM     31  H   UNK     1      -4.773  12.019 -30.241  1.00  0.00    +0.119 HD
ENDBRANCH  28  29
BRANCH  28  32
ATOM     32  C   UNK     1      -5.120  10.601 -33.134  1.00  0.00    +0.322 C 
ATOM     33  O   UNK     1      -4.830  10.344 -34.293  1.00  0.00    -0.249 OA
BRANCH  32  34
ATOM     34  O   UNK     1      -6.351  10.302 -32.670  1.00  0.00    -0.480 OA
ATOM     35  H   UNK     1      -6.184   9.540 -32.075  1.00  0.00    +0.295 HD
ENDBRANCH  32  34
ENDBRANCH  28  32
ENDBRANCH  27  28
ENDBRANCH  26  27
ENDBRANCH  25  26
ENDBRANCH  24  25
ENDBRANCH   4  24
TORSDOF 13
ENDMDL
MODEL 5
REMARK VINA RESULT:    -6.456      2.860      4.222
REMARK INTER + INTRA:         -11.919
REMARK INTER:                 -10.975
REMARK INTRA:                  -0.944
REMARK UNBOUND:                -1.501
REMARK  Name = 
REMARK  13 active torsions:
REMARK  status: ('A' for Active; 'I' for Inactive)
REMARK    1  A    between atoms: C_2  and  C_27
REMARK    2  A    between atoms: C_4  and  N_26
REMARK    3  A    between atoms: N_9  and  C_10
REMARK    4  A    between atoms: C_11  and  O_25
REMARK    5  A    between atoms: C_12  and  O_24
REMARK    6  A    between atoms: C_13  and  C_15
REMARK    7  A    between atoms: C_15  and  S_16
REMARK    8  A    between atoms: S_16  and  C_17
REMARK    9  A    between atoms: C_17  and  C_18
REMARK   10  A    between atoms: C_18  and  C_19
REMARK   11  A    between atoms: C_19  and  C_20
REMARK   12  A    between atoms: C_19  and  N_23
REMARK   13  A    between atoms: C_20  and  O_22
REMARK                            x       y       z     vdW  Elec       q    Type
REMARK                         _______ _______ _______ _____ _____    ______ ____
ROOT
ATOM      1  C   UNK     1      -2.358  19.124 -32.817  1.00  0.00    +0.252 C 
ATOM      2  C   UNK     1      -2.660  17.745 -32.222  1.00  0.00    +0.195 C 
ATOM      3  C   UNK     1      -1.604  16.896 -32.910  1.00  0.00    +0.177 C 
ATOM      4  C   UNK     1      -0.396  17.835 -32.951  1.00  0.00    +0.162 C 
ATOM      5  O   UNK     1      -0.928  19.175 -33.038  1.00  0.00    -0.347 OA
ENDROOT
BRANCH   1  14
ATOM      6  C   UNK     1      -2.646  20.253 -30.569  1.00  0.00    +0.110 A 
ATOM      7  C   UNK     1      -3.137  21.469 -30.139  1.00  0.00    +0.082 A 
ATOM      8  C   UNK     1      -3.546  22.208 -31.282  1.00  0.00    +0.076 A 
ATOM      9  C   UNK     1      -4.111  23.468 -31.536  1.00  0.00    +0.130 A 
ATOM     10  N   UNK     1      -4.362  23.817 -32.814  1.00  0.00    -0.220 NA
ATOM     11  C   UNK     1      -4.059  22.942 -33.792  1.00  0.00    +0.225 A 
ATOM     12  N   UNK     1      -3.513  21.722 -33.670  1.00  0.00    -0.217 NA
ATOM     13  C   UNK     1      -3.283  21.406 -32.386  1.00  0.00    +0.149 A 
ATOM     14  N   UNK     1      -2.743  20.223 -31.941  1.00  0.00    -0.302 N 
BRANCH   9  15
ATOM     15  N   UNK     1      -4.431  24.386 -30.566  1.00  0.00    -0.342 N 
ATOM     16  H   UNK     1      -5.361  24.507 -30.200  1.00  0.00    +0.144 HD
ATOM     17  H   UNK     1      -3.671  24.954 -30.221  1.00  0.00    +0.144 HD
ENDBRANCH   9  15
BRANCH   7  18
ATOM     18  C   UNK     1      -3.210  21.895 -28.779  1.00  0.00    +0.101 C 
ATOM     19  N   UNK     1      -3.308  22.225 -27.670  1.00  0.00    -0.191 NA
ENDBRANCH   7  18
ENDBRANCH   1  14
BRANCH   3  20
ATOM     20  O   UNK     1      -2.071  16.611 -34.242  1.00  0.00    -0.386 OA
ATOM     21  H   UNK     1      -2.846  16.024 -34.165  1.00  0.00    +0.210 HD
ENDBRANCH   3  20
BRANCH   2  22
ATOM     22  O   UNK     1      -3.966  17.250 -32.496  1.00  0.00    -0.385 OA
ATOM     23  H   UNK     1      -4.568  18.018 -32.411  1.00  0.00    +0.210 HD
ENDBRANCH   2  22
BRANCH   4  24
ATOM     24  C   UNK     1       0.473  17.682 -31.693  1.00  0.00    +0.103 C 
BRANCH  24  25
ATOM     25  S   UNK     1       0.934  15.970 -31.235  1.00  0.00    -0.158 S 
BRANCH  25  26
ATOM     26  C   UNK     1       2.120  16.234 -29.871  1.00  0.00    +0.071 C 
BRANCH  26  27
ATOM     27  C   UNK     1       3.579  16.155 -30.316  1.00  0.00    +0.040 C 
BRANCH  27  28
ATOM     28  C   UNK     1       3.719  15.916 -31.828  1.00  0.00    +0.161 C 
BRANCH  28  29
ATOM     29  N   UNK     1       4.542  16.978 -32.441  1.00  0.00    -0.318 NA
ATOM     30  H   UNK     1       4.269  17.878 -32.037  1.00  0.00    +0.119 HD
ATOM     31  H   UNK     1       5.523  16.846 -32.204  1.00  0.00    +0.119 HD
ENDBRANCH  28  29
BRANCH  28  32
ATOM     32  C   UNK     1       4.344  14.544 -32.131  1.00  0.00    +0.322 C 
ATOM     33  O   UNK     1       5.538  14.290 -32.193  1.00  0.00    -0.249 OA
BRANCH  32  34
ATOM     34  O   UNK     1       3.441  13.591 -32.443  1.00  0.00    -0.480 OA
ATOM     35  H   UNK     1       2.590  14.078 -32.425  1.00  0.00    +0.295 HD
ENDBRANCH  32  34
ENDBRANCH  28  32
ENDBRANCH  27  28
ENDBRANCH  26  27
ENDBRANCH  25  26
ENDBRANCH  24  25
ENDBRANCH   4  24
TORSDOF 13
ENDMDL
MODEL 6
REMARK VINA RESULT:    -6.400     10.499     12.894
REMARK INTER + INTRA:         -11.829
REMARK INTER:                 -10.865
REMARK INTRA:                  -0.964
REMARK UNBOUND:                -1.501
REMARK  Name = 
REMARK  13 active torsions:
REMARK  status: ('A' for Active; 'I' for Inactive)
REMARK    1  A    between atoms: C_2  and  C_27
REMARK    2  A    between atoms: C_4  and  N_26
REMARK    3  A    between atoms: N_9  and  C_10
REMARK    4  A    between atoms: C_11  and  O_25
REMARK    5  A    between atoms: C_12  and  O_24
REMARK    6  A    between atoms: C_13  and  C_15
REMARK    7  A    between atoms: C_15  and  S_16
REMARK    8  A    between atoms: S_16  and  C_17
REMARK    9  A    between atoms: C_17  and  C_18
REMARK   10  A    between atoms: C_18  and  C_19
REMARK   11  A    between atoms: C_19  and  C_20
REMARK   12  A    between atoms: C_19  and  N_23
REMARK   13  A    between atoms: C_20  and  O_22
REMARK                            x       y       z     vdW  Elec       q    Type
REMARK                         _______ _______ _______ _____ _____    ______ ____
ROOT
ATOM      1  C   UNK     1      -5.513   9.252 -30.868  1.00  0.00    +0.252 C 
ATOM      2  C   UNK     1      -4.894   8.090 -31.651  1.00  0.00    +0.195 C 
ATOM      3  C   UNK     1      -4.965   8.628 -33.070  1.00  0.00    +0.177 C 
ATOM      4  C   UNK     1      -4.653  10.114 -32.880  1.00  0.00    +0.162 C 
ATOM      5  O   UNK     1      -5.144  10.466 -31.567  1.00  0.00    -0.347 OA
ENDROOT
BRANCH   1  14
ATOM      6  C   UNK     1      -4.075  10.186 -29.005  1.00  0.00    +0.110 A 
ATOM      7  C   UNK     1      -3.920   9.919 -27.660  1.00  0.00    +0.082 A 
ATOM      8  C   UNK     1      -4.816   8.873 -27.311  1.00  0.00    +0.076 A 
ATOM      9  C   UNK     1      -5.148   8.155 -26.151  1.00  0.00    +0.130 A 
ATOM     10  N   UNK     1      -6.093   7.197 -26.234  1.00  0.00    -0.220 NA
ATOM     11  C   UNK     1      -6.679   6.970 -27.425  1.00  0.00    +0.225 A 
ATOM     12  N   UNK     1      -6.449   7.594 -28.591  1.00  0.00    -0.217 NA
ATOM     13  C   UNK     1      -5.500   8.535 -28.473  1.00  0.00    +0.149 A 
ATOM     14  N   UNK     1      -5.039   9.334 -29.492  1.00  0.00    -0.302 N 
BRANCH   9  15
ATOM     15  N   UNK     1      -4.575   8.359 -24.920  1.00  0.00    -0.342 N 
ATOM     16  H   UNK     1      -3.594   8.226 -24.734  1.00  0.00    +0.144 HD
ATOM     17  H   UNK     1      -5.196   8.659 -24.182  1.00  0.00    +0.144 HD
ENDBRANCH   9  15
BRANCH   7  18
ATOM     18  C   UNK     1      -3.013  10.589 -26.785  1.00  0.00    +0.101 C 
ATOM     19  N   UNK     1      -2.264  11.097 -26.058  1.00  0.00    -0.191 NA
ENDBRANCH   7  18
ENDBRANCH   1  14
BRANCH   3  20
ATOM     20  O   UNK     1      -6.314   8.448 -33.540  1.00  0.00    -0.386 OA
ATOM     21  H   UNK     1      -6.288   7.814 -34.280  1.00  0.00    +0.210 HD
ENDBRANCH   3  20
BRANCH   2  22
ATOM     22  O   UNK     1      -5.595   6.856 -31.540  1.00  0.00    -0.385 OA
ATOM     23  H   UNK     1      -6.422   7.059 -31.056  1.00  0.00    +0.210 HD
ENDBRANCH   2  22
BRANCH   4  24
ATOM     24  C   UNK     1      -3.144  10.386 -32.980  1.00  0.00    +0.103 C 
BRANCH  24  25
ATOM     25  S   UNK     1      -2.648  11.786 -34.052  1.00  0.00    -0.158 S 
BRANCH  25  26
ATOM     26  C   UNK     1      -3.835  11.659 -35.435  1.00  0.00    +0.071 C 
BRANCH  26  27
ATOM     27  C   UNK     1      -4.921  12.732 -35.398  1.00  0.00    +0.040 C 
BRANCH  27  28
ATOM     28  C   UNK     1      -5.303  13.230 -36.801  1.00  0.00    +0.161 C 
BRANCH  28  29
ATOM     29  N   UNK     1      -5.188  12.134 -37.783  1.00  0.00    -0.318 NA
ATOM     30  H   UNK     1      -6.115  11.952 -38.180  1.00  0.00    +0.119 HD
ATOM     31  H   UNK     1      -4.598  12.418 -38.563  1.00  0.00    +0.119 HD
ENDBRANCH  28  29
BRANCH  28  32
ATOM     32  C   UNK     1      -6.731  13.800 -36.833  1.00  0.00    +0.322 C 
ATOM     33  O   UNK     1      -7.451  13.893 -37.816  1.00  0.00    -0.249 OA
BRANCH  32  34
ATOM     34  O   UNK     1      -7.138  14.317 -35.655  1.00  0.00    -0.480 OA
ATOM     35  H   UNK     1      -6.449  14.008 -35.028  1.00  0.00    +0.295 HD
ENDBRANCH  32  34
ENDBRANCH  28  32
ENDBRANCH  27  28
ENDBRANCH  26  27
ENDBRANCH  25  26
ENDBRANCH  24  25
ENDBRANCH   4  24
TORSDOF 13
ENDMDL
MODEL 7
REMARK VINA RESULT:    -6.325      6.420      9.437
REMARK INTER + INTRA:         -11.708
REMARK INTER:                 -10.698
REMARK INTRA:                  -1.010
REMARK UNBOUND:                -1.501
REMARK  Name = 
REMARK  13 active torsions:
REMARK  status: ('A' for Active; 'I' for Inactive)
REMARK    1  A    between atoms: C_2  and  C_27
REMARK    2  A    between atoms: C_4  and  N_26
REMARK    3  A    between atoms: N_9  and  C_10
REMARK    4  A    between atoms: C_11  and  O_25
REMARK    5  A    between atoms: C_12  and  O_24
REMARK    6  A    between atoms: C_13  and  C_15
REMARK    7  A    between atoms: C_15  and  S_16
REMARK    8  A    between atoms: S_16  and  C_17
REMARK    9  A    between atoms: C_17  and  C_18
REMARK   10  A    between atoms: C_18  and  C_19
REMARK   11  A    between atoms: C_19  and  C_20
REMARK   12  A    between atoms: C_19  and  N_23
REMARK   13  A    between atoms: C_20  and  O_22
REMARK                            x       y       z     vdW  Elec       q    Type
REMARK                         _______ _______ _______ _____ _____    ______ ____
ROOT
ATOM      1  C   UNK     1      -4.081  13.470 -32.019  1.00  0.00    +0.252 C 
ATOM      2  C   UNK     1      -3.808  14.408 -33.198  1.00  0.00    +0.195 C 
ATOM      3  C   UNK     1      -3.008  15.505 -32.515  1.00  0.00    +0.177 C 
ATOM      4  C   UNK     1      -2.157  14.723 -31.513  1.00  0.00    +0.162 C 
ATOM      5  O   UNK     1      -2.932  13.562 -31.141  1.00  0.00    -0.347 OA
ENDROOT
BRANCH   1  14
ATOM      6  C   UNK     1      -4.311  11.598 -33.707  1.00  0.00    +0.110 A 
ATOM      7  C   UNK     1      -4.513  10.234 -33.638  1.00  0.00    +0.082 A 
ATOM      8  C   UNK     1      -4.587   9.869 -32.266  1.00  0.00    +0.076 A 
ATOM      9  C   UNK     1      -4.772   8.688 -31.531  1.00  0.00    +0.130 A 
ATOM     10  N   UNK     1      -4.781   8.760 -30.185  1.00  0.00    -0.220 NA
ATOM     11  C   UNK     1      -4.610   9.962 -29.603  1.00  0.00    +0.225 A 
ATOM     12  N   UNK     1      -4.418  11.149 -30.199  1.00  0.00    -0.217 NA
ATOM     13  C   UNK     1      -4.422  11.041 -31.536  1.00  0.00    +0.149 A 
ATOM     14  N   UNK     1      -4.261  12.081 -32.420  1.00  0.00    -0.302 N 
BRANCH   9  15
ATOM     15  N   UNK     1      -4.948   7.445 -32.089  1.00  0.00    -0.342 N 
ATOM     16  H   UNK     1      -5.451   7.286 -32.946  1.00  0.00    +0.144 HD
ATOM     17  H   UNK     1      -4.537   6.669 -31.590  1.00  0.00    +0.144 HD
ENDBRANCH   9  15
BRANCH   7  18
ATOM     18  C   UNK     1      -4.623   9.358 -34.759  1.00  0.00    +0.101 C 
ATOM     19  N   UNK     1      -4.729   8.676 -35.692  1.00  0.00    -0.191 NA
ENDBRANCH   7  18
ENDBRANCH   1  14
BRANCH   3  20
ATOM     20  O   UNK     1      -3.939  16.363 -31.831  1.00  0.00    -0.386 OA
ATOM     21  H   UNK     1      -3.569  17.265 -31.834  1.00  0.00    +0.210 HD
ENDBRANCH   3  20
BRANCH   2  22
ATOM     22  O   UNK     1      -4.972  14.940 -33.820  1.00  0.00    -0.385 OA
ATOM     23  H   UNK     1      -5.560  15.225 -33.090  1.00  0.00    +0.210 HD
ENDBRANCH   2  22
BRANCH   4  24
ATOM     24  C   UNK     1      -0.815  14.296 -32.131  1.00  0.00    +0.103 C 
BRANCH  24  25
ATOM     25  S   UNK     1       0.685  15.044 -31.394  1.00  0.00    -0.158 S 
BRANCH  25  26
ATOM     26  C   UNK     1       0.863  16.589 -32.352  1.00  0.00    +0.071 C 
BRANCH  26  27
ATOM     27  C   UNK     1       0.087  17.762 -31.756  1.00  0.00    +0.040 C 
BRANCH  27  28
ATOM     28  C   UNK     1      -0.581  18.632 -32.832  1.00  0.00    +0.161 C 
BRANCH  28  29
ATOM     29  N   UNK     1      -0.909  17.818 -34.020  1.00  0.00    -0.318 NA
ATOM     30  H   UNK     1      -1.837  17.405 -33.888  1.00  0.00    +0.119 HD
ATOM     31  H   UNK     1      -0.977  18.410 -34.846  1.00  0.00    +0.119 HD
ENDBRANCH  28  29
BRANCH  28  32
ATOM     32  C   UNK     1      -1.860  19.307 -32.305  1.00  0.00    +0.322 C 
ATOM     33  O   UNK     1      -2.333  20.364 -32.695  1.00  0.00    -0.249 OA
BRANCH  32  34
ATOM     34  O   UNK     1      -2.415  18.673 -31.252  1.00  0.00    -0.480 OA
ATOM     35  H   UNK     1      -2.140  19.228 -30.490  1.00  0.00    +0.295 HD
ENDBRANCH  32  34
ENDBRANCH  28  32
ENDBRANCH  27  28
ENDBRANCH  26  27
ENDBRANCH  25  26
ENDBRANCH  24  25
ENDBRANCH   4  24
TORSDOF 13
ENDMDL
MODEL 8
REMARK VINA RESULT:    -6.240      5.846      9.222
REMARK INTER + INTRA:         -11.571
REMARK INTER:                 -10.480
REMARK INTRA:                  -1.091
REMARK UNBOUND:                -1.501
REMARK  Name = 
REMARK  13 active torsions:
REMARK  status: ('A' for Active; 'I' for Inactive)
REMARK    1  A    between atoms: C_2  and  C_27
REMARK    2  A    between atoms: C_4  and  N_26
REMARK    3  A    between atoms: N_9  and  C_10
REMARK    4  A    between atoms: C_11  and  O_25
REMARK    5  A    between atoms: C_12  and  O_24
REMARK    6  A    between atoms: C_13  and  C_15
REMARK    7  A    between atoms: C_15  and  S_16
REMARK    8  A    between atoms: S_16  and  C_17
REMARK    9  A    between atoms: C_17  and  C_18
REMARK   10  A    between atoms: C_18  and  C_19
REMARK   11  A    between atoms: C_19  and  C_20
REMARK   12  A    between atoms: C_19  and  N_23
REMARK   13  A    between atoms: C_20  and  O_22
REMARK                            x       y       z     vdW  Elec       q    Type
REMARK                         _______ _______ _______ _____ _____    ______ ____
ROOT
ATOM      1  C   UNK     1      -1.435  15.625 -32.604  1.00  0.00    +0.252 C 
ATOM      2  C   UNK     1      -2.795  16.125 -32.109  1.00  0.00    +0.195 C 
ATOM      3  C   UNK     1      -3.725  15.488 -33.128  1.00  0.00    +0.177 C 
ATOM      4  C   UNK     1      -3.075  14.124 -33.366  1.00  0.00    +0.162 C 
ATOM      5  O   UNK     1      -1.656  14.310 -33.169  1.00  0.00    -0.347 OA
ENDROOT
BRANCH   1  14
ATOM      6  C   UNK     1      -0.468  14.667 -30.470  1.00  0.00    +0.110 A 
ATOM      7  C   UNK     1       0.653  14.916 -29.703  1.00  0.00    +0.082 A 
ATOM      8  C   UNK     1       1.392  15.957 -30.327  1.00  0.00    +0.076 A 
ATOM      9  C   UNK     1       2.581  16.659 -30.076  1.00  0.00    +0.130 A 
ATOM     10  N   UNK     1       2.960  17.619 -30.944  1.00  0.00    -0.220 NA
ATOM     11  C   UNK     1       2.182  17.861 -32.016  1.00  0.00    +0.225 A 
ATOM     12  N   UNK     1       1.036  17.253 -32.360  1.00  0.00    -0.217 NA
ATOM     13  C   UNK     1       0.686  16.310 -31.472  1.00  0.00    +0.149 A 
ATOM     14  N   UNK     1      -0.440  15.525 -31.544  1.00  0.00    -0.302 N 
BRANCH   9  15
ATOM     15  N   UNK     1       3.400  16.439 -28.996  1.00  0.00    -0.342 N 
ATOM     16  H   UNK     1       4.365  16.167 -29.076  1.00  0.00    +0.144 HD
ATOM     17  H   UNK     1       2.981  16.565 -28.085  1.00  0.00    +0.144 HD
ENDBRANCH   9  15
BRANCH   7  18
ATOM     18  C   UNK     1       0.996  14.234 -28.497  1.00  0.00    +0.101 C 
ATOM     19  N   UNK     1       1.246  13.701 -27.497  1.00  0.00    -0.191 NA
ENDBRANCH   7  18
ENDBRANCH   1  14
BRANCH   3  20
ATOM     20  O   UNK     1      -3.677  16.289 -34.323  1.00  0.00    -0.386 OA
ATOM     21  H   UNK     1      -2.986  16.965 -34.200  1.00  0.00    +0.210 HD
ENDBRANCH   3  20
BRANCH   2  22
ATOM     22  O   UNK     1      -2.945  17.540 -32.099  1.00  0.00    -0.385 OA
ATOM     23  H   UNK     1      -3.791  17.717 -31.639  1.00  0.00    +0.210 HD
ENDBRANCH   2  22
BRANCH   4  24
ATOM     24  C   UNK     1      -3.618  13.067 -32.391  1.00  0.00    +0.103 C 
BRANCH  24  25
ATOM     25  S   UNK     1      -3.856  11.386 -33.076  1.00  0.00    -0.158 S 
BRANCH  25  26
ATOM     26  C   UNK     1      -3.603  11.652 -34.865  1.00  0.00    +0.071 C 
BRANCH  26  27
ATOM     27  C   UNK     1      -4.891  11.547 -35.679  1.00  0.00    +0.040 C 
BRANCH  27  28
ATOM     28  C   UNK     1      -5.046  12.698 -36.686  1.00  0.00    +0.161 C 
BRANCH  28  29
ATOM     29  N   UNK     1      -5.312  12.166 -38.037  1.00  0.00    -0.318 NA
ATOM     30  H   UNK     1      -5.436  11.151 -37.971  1.00  0.00    +0.119 HD
ATOM     31  H   UNK     1      -6.190  12.535 -38.396  1.00  0.00    +0.119 HD
ENDBRANCH  28  29
BRANCH  28  32
ATOM     32  C   UNK     1      -6.176  13.659 -36.281  1.00  0.00    +0.322 C 
ATOM     33  O   UNK     1      -7.129  13.987 -36.973  1.00  0.00    -0.249 OA
BRANCH  32  34
ATOM     34  O   UNK     1      -5.996  14.235 -35.075  1.00  0.00    -0.480 OA
ATOM     35  H   UNK     1      -6.013  13.471 -34.460  1.00  0.00    +0.295 HD
ENDBRANCH  32  34
ENDBRANCH  28  32
ENDBRANCH  27  28
ENDBRANCH  26  27
ENDBRANCH  25  26
ENDBRANCH  24  25
ENDBRANCH   4  24
TORSDOF 13
ENDMDL
MODEL 9
REMARK VINA RESULT:    -5.880      7.151     10.016
REMARK INTER + INTRA:         -10.990
REMARK INTER:                 -10.364
REMARK INTRA:                  -0.626
REMARK UNBOUND:                -1.501
REMARK  Name = 
REMARK  13 active torsions:
REMARK  status: ('A' for Active; 'I' for Inactive)
REMARK    1  A    between atoms: C_2  and  C_27
REMARK    2  A    between atoms: C_4  and  N_26
REMARK    3  A    between atoms: N_9  and  C_10
REMARK    4  A    between atoms: C_11  and  O_25
REMARK    5  A    between atoms: C_12  and  O_24
REMARK    6  A    between atoms: C_13  and  C_15
REMARK    7  A    between atoms: C_15  and  S_16
REMARK    8  A    between atoms: S_16  and  C_17
REMARK    9  A    between atoms: C_17  and  C_18
REMARK   10  A    between atoms: C_18  and  C_19
REMARK   11  A    between atoms: C_19  and  C_20
REMARK   12  A    between atoms: C_19  and  N_23
REMARK   13  A    between atoms: C_20  and  O_22
REMARK                            x       y       z     vdW  Elec       q    Type
REMARK                         _______ _______ _______ _____ _____    ______ ____
ROOT
ATOM      1  C   UNK     1      -4.402  12.060 -31.208  1.00  0.00    +0.252 C 
ATOM      2  C   UNK     1      -4.089  10.712 -30.553  1.00  0.00    +0.195 C 
ATOM      3  C   UNK     1      -5.024   9.793 -31.322  1.00  0.00    +0.177 C 
ATOM      4  C   UNK     1      -4.964  10.367 -32.739  1.00  0.00    +0.162 C 
ATOM      5  O   UNK     1      -4.724  11.784 -32.594  1.00  0.00    -0.347 OA
ENDROOT
BRANCH   1  14
ATOM      6  C   UNK     1      -2.199  12.932 -30.317  1.00  0.00    +0.110 A 
ATOM      7  C   UNK     1      -1.395  14.021 -30.586  1.00  0.00    +0.082 A 
ATOM      8  C   UNK     1      -2.006  14.775 -31.624  1.00  0.00    +0.076 A 
ATOM      9  C   UNK     1      -1.722  15.949 -32.338  1.00  0.00    +0.130 A 
ATOM     10  N   UNK     1      -2.590  16.353 -33.288  1.00  0.00    -0.220 NA
ATOM     11  C   UNK     1      -3.691  15.612 -33.512  1.00  0.00    +0.225 A 
ATOM     12  N   UNK     1      -4.061  14.475 -32.901  1.00  0.00    -0.217 NA
ATOM     13  C   UNK     1      -3.179  14.107 -31.959  1.00  0.00    +0.149 A 
ATOM     14  N   UNK     1      -3.287  12.996 -31.157  1.00  0.00    -0.302 N 
BRANCH   9  15
ATOM     15  N   UNK     1      -0.610  16.729 -32.139  1.00  0.00    -0.342 N 
ATOM     16  H   UNK     1      -0.322  17.460 -32.769  1.00  0.00    +0.144 HD
ATOM     17  H   UNK     1      -0.072  16.536 -31.307  1.00  0.00    +0.144 HD
ENDBRANCH   9  15
BRANCH   7  18
ATOM     18  C   UNK     1      -0.164  14.320 -29.929  1.00  0.00    +0.101 C 
ATOM     19  N   UNK     1       0.825  14.604 -29.392  1.00  0.00    -0.191 NA
ENDBRANCH   7  18
ENDBRANCH   1  14
BRANCH   3  20
ATOM     20  O   UNK     1      -6.343   9.947 -30.767  1.00  0.00    -0.386 OA
ATOM     21  H   UNK     1      -6.276   9.821 -29.802  1.00  0.00    +0.210 HD
ENDBRANCH   3  20
BRANCH   2  22
ATOM     22  O   UNK     1      -4.354  10.651 -29.156  1.00  0.00    -0.385 OA
ATOM     23  H   UNK     1      -4.293   9.704 -28.912  1.00  0.00    +0.210 HD
ENDBRANCH   2  22
BRANCH   4  24
ATOM     24  C   UNK     1      -3.841   9.713 -33.561  1.00  0.00    +0.103 C 
BRANCH  24  25
ATOM     25  S   UNK     1      -2.819  10.847 -34.572  1.00  0.00    -0.158 S 
BRANCH  25  26
ATOM     26  C   UNK     1      -3.918  11.209 -35.986  1.00  0.00    +0.071 C 
BRANCH  26  27
ATOM     27  C   UNK     1      -4.819  12.421 -35.754  1.00  0.00    +0.040 C 
BRANCH  27  28
ATOM     28  C   UNK     1      -5.366  13.005 -37.066  1.00  0.00    +0.161 C 
BRANCH  28  29
ATOM     29  N   UNK     1      -5.568  11.932 -38.060  1.00  0.00    -0.318 NA
ATOM     30  H   UNK     1      -5.877  12.355 -38.941  1.00  0.00    +0.119 HD
ATOM     31  H   UNK     1      -4.685  11.468 -38.264  1.00  0.00    +0.119 HD
ENDBRANCH  28  29
BRANCH  28  32
ATOM     32  C   UNK     1      -6.691  13.755 -36.846  1.00  0.00    +0.322 C 
ATOM     33  O   UNK     1      -7.472  14.113 -37.714  1.00  0.00    -0.249 OA
BRANCH  32  34
ATOM     34  O   UNK     1      -6.911  14.106 -35.562  1.00  0.00    -0.480 OA
ATOM     35  H   UNK     1      -6.194  13.641 -35.079  1.00  0.00    +0.295 HD
ENDBRANCH  32  34
ENDBRANCH  28  32
ENDBRANCH  27  28
ENDBRANCH  26  27
ENDBRANCH  25  26
ENDBRANCH  24  25
ENDBRANCH   4  24
TORSDOF 13
ENDMDL
