MODEL 1
REMARK VINA RESULT:    -7.366      0.000      0.000
REMARK INTER + INTRA:         -13.214
REMARK INTER:                 -11.888
REMARK INTRA:                  -1.327
REMARK UNBOUND:                -1.327
REMARK  Name = 
REMARK  13 active torsions:
REMARK  status: ('A' for Active; 'I' for Inactive)
REMARK    1  A    between atoms: C_2  and  C_27
REMARK    2  A    between atoms: C_4  and  N_26
REMARK    3  A    between atoms: N_9  and  C_10
REMARK    4  A    between atoms: C_11  and  O_25
REMARK    5  A    between atoms: C_12  and  O_24
REMARK    6  A    between atoms: C_13  and  C_15
REMARK    7  A    between atoms: C_15  and  S_16
REMARK    8  A    between atoms: S_16  and  C_17
REMARK    9  A    between atoms: C_17  and  C_18
REMARK   10  A    between atoms: C_18  and  C_19
REMARK   11  A    between atoms: C_19  and  C_20
REMARK   12  A    between atoms: C_19  and  N_23
REMARK   13  A    between atoms: C_20  and  O_22
REMARK                            x       y       z     vdW  Elec       q    Type
REMARK                         _______ _______ _______ _____ _____    ______ ____
ROOT
ATOM      1  C   UNK     1      -2.355  19.126 -32.813  1.00  0.00    +0.252 C 
ATOM      2  C   UNK     1      -2.644  17.743 -32.221  1.00  0.00    +0.195 C 
ATOM      3  C   UNK     1      -1.598  16.901 -32.933  1.00  0.00    +0.177 C 
ATOM      4  C   UNK     1      -0.394  17.842 -32.991  1.00  0.00    +0.162 C 
ATOM      5  O   UNK     1      -0.929  19.182 -33.061  1.00  0.00    -0.347 OA
ENDROOT
BRANCH   1  14
ATOM      6  C   UNK     1      -2.684  20.211 -30.549  1.00  0.00    +0.110 A 
ATOM      7  C   UNK     1      -3.137  21.437 -30.107  1.00  0.00    +0.082 A 
ATOM      8  C   UNK     1      -3.466  22.222 -31.244  1.00  0.00    +0.076 A 
ATOM      9  C   UNK     1      -3.963  23.512 -31.487  1.00  0.00    +0.130 A 
ATOM     10  N   UNK     1      -4.146  23.904 -32.764  1.00  0.00    -0.220 NA
ATOM     11  C   UNK     1      -3.843  23.041 -33.752  1.00  0.00    +0.225 A 
ATOM     12  N   UNK     1      -3.358  21.795 -33.641  1.00  0.00    -0.217 NA
ATOM     13  C   UNK     1      -3.195  21.437 -32.358  1.00  0.00    +0.149 A 
ATOM     14  N   UNK     1      -2.727  20.219 -31.925  1.00  0.00    -0.302 N 
BRANCH   9  15
ATOM     15  N   UNK     1      -4.282  24.419 -30.506  1.00  0.00    -0.342 N 
ATOM     16  H   UNK     1      -4.181  25.415 -30.615  1.00  0.00    +0.144 HD
ATOM     17  H   UNK     1      -4.634  24.036 -29.641  1.00  0.00    +0.144 HD
ENDBRANCH   9  15
BRANCH   7  18
ATOM     18  C   UNK     1      -3.247  21.831 -28.740  1.00  0.00    +0.101 C 
ATOM     19  N   UNK     1      -3.374  22.169 -27.636  1.00  0.00    -0.191 NA
ENDBRANCH   7  18
ENDBRANCH   1  14
BRANCH   3  20
ATOM     20  O   UNK     1      -2.090  16.622 -34.257  1.00  0.00    -0.386 OA
ATOM     21  H   UNK     1      -1.469  17.021 -34.895  1.00  0.00    +0.210 HD
ENDBRANCH   3  20
BRANCH   2  22
ATOM     22  O   UNK     1      -3.953  17.247 -32.473  1.00  0.00    -0.385 OA
ATOM     23  H   UNK     1      -3.839  16.311 -32.739  1.00  0.00    +0.210 HD
ENDBRANCH   2  22
BRANCH   4  24
ATOM     24  C   UNK     1       0.500  17.685 -31.750  1.00  0.00    +0.103 C 
BRANCH  24  25
ATOM     25  S   UNK     1       2.279  18.049 -31.988  1.00  0.00    -0.158 S 
BRANCH  25  26
ATOM     26  C   UNK     1       2.447  19.697 -31.217  1.00  0.00    +0.071 C 
BRANCH  26  27
ATOM     27  C   UNK     1       1.311  20.030 -30.251  1.00  0.00    +0.040 C 
BRANCH  27  28
ATOM     28  C   UNK     1       1.600  21.289 -29.418  1.00  0.00    +0.161 C 
BRANCH  28  29
ATOM     29  N   UNK     1       0.385  21.714 -28.694  1.00  0.00    -0.318 NA
ATOM     30  H   UNK     1       0.223  22.708 -28.881  1.00  0.00    +0.119 HD
ATOM     31  H   UNK     1      -0.431  21.222 -29.052  1.00  0.00    +0.119 HD
ENDBRANCH  28  29
BRANCH  28  32
ATOM     32  C   UNK     1       2.740  21.056 -28.412  1.00  0.00    +0.322 C 
ATOM     33  O   UNK     1       3.761  21.720 -28.310  1.00  0.00    -0.249 OA
BRANCH  32  34
ATOM     34  O   UNK     1       2.587  19.946 -27.662  1.00  0.00    -0.480 OA
ATOM     35  H   UNK     1       1.774  19.539 -28.033  1.00  0.00    +0.295 HD
ENDBRANCH  32  34
ENDBRANCH  28  32
ENDBRANCH  27  28
ENDBRANCH  26  27
ENDBRANCH  25  26
ENDBRANCH  24  25
ENDBRANCH   4  24
TORSDOF 13
ENDMDL
MODEL 2
REMARK VINA RESULT:    -7.356      2.475      4.112
REMARK INTER + INTRA:         -13.198
REMARK INTER:                 -12.002
REMARK INTRA:                  -1.196
REMARK UNBOUND:                -1.327
REMARK  Name = 
REMARK  13 active torsions:
REMARK  status: ('A' for Active; 'I' for Inactive)
REMARK    1  A    between atoms: C_2  and  C_27
REMARK    2  A    between atoms: C_4  and  N_26
REMARK    3  A    between atoms: N_9  and  C_10
REMARK    4  A    between atoms: C_11  and  O_25
REMARK    5  A    between atoms: C_12  and  O_24
REMARK    6  A    between atoms: C_13  and  C_15
REMARK    7  A    between atoms: C_15  and  S_16
REMARK    8  A    between atoms: S_16  and  C_17
REMARK    9  A    between atoms: C_17  and  C_18
REMARK   10  A    between atoms: C_18  and  C_19
REMARK   11  A    between atoms: C_19  and  C_20
REMARK   12  A    between atoms: C_19  and  N_23
REMARK   13  A    between atoms: C_20  and  O_22
REMARK                            x       y       z     vdW  Elec       q    Type
REMARK                         _______ _______ _______ _____ _____    ______ ____
ROOT
ATOM      1  C   UNK     1      -2.353  19.126 -32.784  1.00  0.00    +0.252 C 
ATOM      2  C   UNK     1      -2.632  17.755 -32.160  1.00  0.00    +0.195 C 
ATOM      3  C   UNK     1      -1.583  16.903 -32.856  1.00  0.00    +0.177 C 
ATOM      4  C   UNK     1      -0.385  17.850 -32.939  1.00  0.00    +0.162 C 
ATOM      5  O   UNK     1      -0.928  19.184 -33.037  1.00  0.00    -0.347 OA
ENDROOT
BRANCH   1  14
ATOM      6  C   UNK     1      -2.686  20.258 -30.544  1.00  0.00    +0.110 A 
ATOM      7  C   UNK     1      -3.144  21.491 -30.128  1.00  0.00    +0.082 A 
ATOM      8  C   UNK     1      -3.476  22.251 -31.283  1.00  0.00    +0.076 A 
ATOM      9  C   UNK     1      -3.978  23.533 -31.553  1.00  0.00    +0.130 A 
ATOM     10  N   UNK     1      -4.163  23.896 -32.838  1.00  0.00    -0.220 NA
ATOM     11  C   UNK     1      -3.856  23.014 -33.807  1.00  0.00    +0.225 A 
ATOM     12  N   UNK     1      -3.367  21.772 -33.670  1.00  0.00    -0.217 NA
ATOM     13  C   UNK     1      -3.202  21.442 -32.379  1.00  0.00    +0.149 A 
ATOM     14  N   UNK     1      -2.729  20.236 -31.919  1.00  0.00    -0.302 N 
BRANCH   9  15
ATOM     15  N   UNK     1      -4.300  24.460 -30.592  1.00  0.00    -0.342 N 
ATOM     16  H   UNK     1      -5.176  24.954 -30.566  1.00  0.00    +0.144 HD
ATOM     17  H   UNK     1      -3.599  24.633 -29.886  1.00  0.00    +0.144 HD
ENDBRANCH   9  15
BRANCH   7  18
ATOM     18  C   UNK     1      -3.254  21.915 -28.770  1.00  0.00    +0.101 C 
ATOM     19  N   UNK     1      -3.378  22.235 -27.661  1.00  0.00    -0.191 NA
ENDBRANCH   7  18
ENDBRANCH   1  14
BRANCH   3  20
ATOM     20  O   UNK     1      -2.077  16.591 -34.172  1.00  0.00    -0.386 OA
ATOM     21  H   UNK     1      -3.050  16.651 -34.147  1.00  0.00    +0.210 HD
ENDBRANCH   3  20
BRANCH   2  22
ATOM     22  O   UNK     1      -3.939  17.245 -32.397  1.00  0.00    -0.385 OA
ATOM     23  H   UNK     1      -4.010  17.127 -33.367  1.00  0.00    +0.210 HD
ENDBRANCH   2  22
BRANCH   4  24
ATOM     24  C   UNK     1       0.513  17.725 -31.697  1.00  0.00    +0.103 C 
BRANCH  24  25
ATOM     25  S   UNK     1       2.099  16.841 -31.935  1.00  0.00    -0.158 S 
BRANCH  25  26
ATOM     26  C   UNK     1       1.806  15.267 -31.054  1.00  0.00    +0.071 C 
BRANCH  26  27
ATOM     27  C   UNK     1       0.946  14.284 -31.845  1.00  0.00    +0.040 C 
BRANCH  27  28
ATOM     28  C   UNK     1      -0.234  13.742 -31.023  1.00  0.00    +0.161 C 
BRANCH  28  29
ATOM     29  N   UNK     1      -0.645  14.728 -30.004  1.00  0.00    -0.318 NA
ATOM     30  H   UNK     1      -0.430  15.668 -30.352  1.00  0.00    +0.119 HD
ATOM     31  H   UNK     1      -1.654  14.700 -29.871  1.00  0.00    +0.119 HD
ENDBRANCH  28  29
BRANCH  28  32
ATOM     32  C   UNK     1      -1.437  13.395 -31.915  1.00  0.00    +0.322 C 
ATOM     33  O   UNK     1      -2.488  12.889 -31.549  1.00  0.00    -0.249 OA
BRANCH  32  34
ATOM     34  O   UNK     1      -1.219  13.604 -33.230  1.00  0.00    -0.480 OA
ATOM     35  H   UNK     1      -0.870  14.521 -33.254  1.00  0.00    +0.295 HD
ENDBRANCH  32  34
ENDBRANCH  28  32
ENDBRANCH  27  28
ENDBRANCH  26  27
ENDBRANCH  25  26
ENDBRANCH  24  25
ENDBRANCH   4  24
TORSDOF 13
ENDMDL
MODEL 3
REMARK VINA RESULT:    -6.860      3.154      3.771
REMARK INTER + INTRA:         -12.398
REMARK INTER:                 -11.598
REMARK INTRA:                  -0.800
REMARK UNBOUND:                -1.327
REMARK  Name = 
REMARK  13 active torsions:
REMARK  status: ('A' for Active; 'I' for Inactive)
REMARK    1  A    between atoms: C_2  and  C_27
REMARK    2  A    between atoms: C_4  and  N_26
REMARK    3  A    between atoms: N_9  and  C_10
REMARK    4  A    between atoms: C_11  and  O_25
REMARK    5  A    between atoms: C_12  and  O_24
REMARK    6  A    between atoms: C_13  and  C_15
REMARK    7  A    between atoms: C_15  and  S_16
REMARK    8  A    between atoms: S_16  and  C_17
REMARK    9  A    between atoms: C_17  and  C_18
REMARK   10  A    between atoms: C_18  and  C_19
REMARK   11  A    between atoms: C_19  and  C_20
REMARK   12  A    between atoms: C_19  and  N_23
REMARK   13  A    between atoms: C_20  and  O_22
REMARK                            x       y       z     vdW  Elec       q    Type
REMARK                         _______ _______ _______ _____ _____    ______ ____
ROOT
ATOM      1  C   UNK     1      -2.423  19.106 -32.851  1.00  0.00    +0.252 C 
ATOM      2  C   UNK     1      -2.711  17.729 -32.244  1.00  0.00    +0.195 C 
ATOM      3  C   UNK     1      -1.680  16.875 -32.963  1.00  0.00    +0.177 C 
ATOM      4  C   UNK     1      -0.471  17.810 -33.045  1.00  0.00    +0.162 C 
ATOM      5  O   UNK     1      -1.000  19.152 -33.119  1.00  0.00    -0.347 OA
ENDROOT
BRANCH   1  14
ATOM      6  C   UNK     1      -2.728  20.206 -30.592  1.00  0.00    +0.110 A 
ATOM      7  C   UNK     1      -3.164  21.440 -30.154  1.00  0.00    +0.082 A 
ATOM      8  C   UNK     1      -3.488  22.224 -31.295  1.00  0.00    +0.076 A 
ATOM      9  C   UNK     1      -3.969  23.519 -31.542  1.00  0.00    +0.130 A 
ATOM     10  N   UNK     1      -4.153  23.906 -32.820  1.00  0.00    -0.220 NA
ATOM     11  C   UNK     1      -3.865  23.034 -33.805  1.00  0.00    +0.225 A 
ATOM     12  N   UNK     1      -3.396  21.782 -33.690  1.00  0.00    -0.217 NA
ATOM     13  C   UNK     1      -3.231  21.429 -32.406  1.00  0.00    +0.149 A 
ATOM     14  N   UNK     1      -2.777  20.208 -31.967  1.00  0.00    -0.302 N 
BRANCH   9  15
ATOM     15  N   UNK     1      -4.272  24.435 -30.565  1.00  0.00    -0.342 N 
ATOM     16  H   UNK     1      -5.016  24.313 -29.898  1.00  0.00    +0.144 HD
ATOM     17  H   UNK     1      -3.699  25.266 -30.539  1.00  0.00    +0.144 HD
ENDBRANCH   9  15
BRANCH   7  18
ATOM     18  C   UNK     1      -3.262  21.844 -28.789  1.00  0.00    +0.101 C 
ATOM     19  N   UNK     1      -3.341  22.212 -27.690  1.00  0.00    -0.191 NA
ENDBRANCH   7  18
ENDBRANCH   1  14
BRANCH   3  20
ATOM     20  O   UNK     1      -2.190  16.588 -34.278  1.00  0.00    -0.386 OA
ATOM     21  H   UNK     1      -3.161  16.531 -34.213  1.00  0.00    +0.210 HD
ENDBRANCH   3  20
BRANCH   2  22
ATOM     22  O   UNK     1      -4.026  17.238 -32.474  1.00  0.00    -0.385 OA
ATOM     23  H   UNK     1      -3.934  16.271 -32.596  1.00  0.00    +0.210 HD
ENDBRANCH   2  22
BRANCH   4  24
ATOM     24  C   UNK     1       0.438  17.658 -31.815  1.00  0.00    +0.103 C 
BRANCH  24  25
ATOM     25  S   UNK     1       1.262  16.034 -31.618  1.00  0.00    -0.158 S 
BRANCH  25  26
ATOM     26  C   UNK     1       1.573  15.967 -29.819  1.00  0.00    +0.071 C 
BRANCH  26  27
ATOM     27  C   UNK     1       0.760  14.889 -29.106  1.00  0.00    +0.040 C 
BRANCH  27  28
ATOM     28  C   UNK     1       1.595  14.104 -28.082  1.00  0.00    +0.161 C 
BRANCH  28  29
ATOM     29  N   UNK     1       0.895  14.047 -26.784  1.00  0.00    -0.318 NA
ATOM     30  H   UNK     1       1.097  13.144 -26.342  1.00  0.00    +0.119 HD
ATOM     31  H   UNK     1       1.260  14.758 -26.153  1.00  0.00    +0.119 HD
ENDBRANCH  28  29
BRANCH  28  32
ATOM     32  C   UNK     1       1.893  12.675 -28.567  1.00  0.00    +0.322 C 
ATOM     33  O   UNK     1       2.001  12.313 -29.730  1.00  0.00    -0.249 OA
BRANCH  32  34
ATOM     34  O   UNK     1       1.935  11.761 -27.576  1.00  0.00    -0.480 OA
ATOM     35  H   UNK     1       2.761  11.992 -27.097  1.00  0.00    +0.295 HD
ENDBRANCH  32  34
ENDBRANCH  28  32
ENDBRANCH  27  28
ENDBRANCH  26  27
ENDBRANCH  25  26
ENDBRANCH  24  25
ENDBRANCH   4  24
TORSDOF 13
ENDMDL
MODEL 4
REMARK VINA RESULT:    -6.592      3.126      5.331
REMARK INTER + INTRA:         -11.965
REMARK INTER:                 -10.545
REMARK INTRA:                  -1.420
REMARK UNBOUND:                -1.327
REMARK  Name = 
REMARK  13 active torsions:
REMARK  status: ('A' for Active; 'I' for Inactive)
REMARK    1  A    between atoms: C_2  and  C_27
REMARK    2  A    between atoms: C_4  and  N_26
REMARK    3  A    between atoms: N_9  and  C_10
REMARK    4  A    between atoms: C_11  and  O_25
REMARK    5  A    between atoms: C_12  and  O_24
REMARK    6  A    between atoms: C_13  and  C_15
REMARK    7  A    between atoms: C_15  and  S_16
REMARK    8  A    between atoms: S_16  and  C_17
REMARK    9  A    between atoms: C_17  and  C_18
REMARK   10  A    between atoms: C_18  and  C_19
REMARK   11  A    between atoms: C_19  and  C_20
REMARK   12  A    between atoms: C_19  and  N_23
REMARK   13  A    between atoms: C_20  and  O_22
REMARK                            x       y       z     vdW  Elec       q    Type
REMARK                         _______ _______ _______ _____ _____    ______ ____
ROOT
ATOM      1  C   UNK     1      -1.774  18.781 -31.855  1.00  0.00    +0.252 C 
ATOM      2  C   UNK     1      -1.050  18.416 -33.153  1.00  0.00    +0.195 C 
ATOM      3  C   UNK     1      -1.045  16.899 -33.065  1.00  0.00    +0.177 C 
ATOM      4  C   UNK     1      -2.412  16.597 -32.446  1.00  0.00    +0.162 C 
ATOM      5  O   UNK     1      -2.734  17.726 -31.604  1.00  0.00    -0.347 OA
ENDROOT
BRANCH   1  14
ATOM      6  C   UNK     1      -2.862  20.716 -33.073  1.00  0.00    +0.110 A 
ATOM      7  C   UNK     1      -3.480  21.890 -32.693  1.00  0.00    +0.082 A 
ATOM      8  C   UNK     1      -3.476  21.951 -31.273  1.00  0.00    +0.076 A 
ATOM      9  C   UNK     1      -3.927  22.842 -30.287  1.00  0.00    +0.130 A 
ATOM     10  N   UNK     1      -3.726  22.528 -28.992  1.00  0.00    -0.220 NA
ATOM     11  C   UNK     1      -3.102  21.371 -28.699  1.00  0.00    +0.225 A 
ATOM     12  N   UNK     1      -2.638  20.443 -29.551  1.00  0.00    -0.217 NA
ATOM     13  C   UNK     1      -2.849  20.792 -30.830  1.00  0.00    +0.149 A 
ATOM     14  N   UNK     1      -2.478  20.055 -31.929  1.00  0.00    -0.302 N 
BRANCH   9  15
ATOM     15  N   UNK     1      -4.567  24.029 -30.547  1.00  0.00    -0.342 N 
ATOM     16  H   UNK     1      -5.155  24.502 -29.881  1.00  0.00    +0.144 HD
ATOM     17  H   UNK     1      -4.420  24.425 -31.464  1.00  0.00    +0.144 HD
ENDBRANCH   9  15
BRANCH   7  18
ATOM     18  C   UNK     1      -4.026  22.861 -33.585  1.00  0.00    +0.101 C 
ATOM     19  N   UNK     1      -4.506  23.630 -34.311  1.00  0.00    -0.191 NA
ENDBRANCH   7  18
ENDBRANCH   1  14
BRANCH   3  20
ATOM     20  O   UNK     1       0.014  16.517 -32.169  1.00  0.00    -0.386 OA
ATOM     21  H   UNK     1      -0.096  15.570 -31.964  1.00  0.00    +0.210 HD
ENDBRANCH   3  20
BRANCH   2  22
ATOM     22  O   UNK     1       0.276  18.922 -33.261  1.00  0.00    -0.385 OA
ATOM     23  H   UNK     1       0.216  19.715 -33.833  1.00  0.00    +0.210 HD
ENDBRANCH   2  22
BRANCH   4  24
ATOM     24  C   UNK     1      -3.487  16.410 -33.529  1.00  0.00    +0.103 C 
BRANCH  24  25
ATOM     25  S   UNK     1      -4.192  14.727 -33.680  1.00  0.00    -0.158 S 
BRANCH  25  26
ATOM     26  C   UNK     1      -2.743  13.664 -33.352  1.00  0.00    +0.071 C 
BRANCH  26  27
ATOM     27  C   UNK     1      -2.618  13.251 -31.886  1.00  0.00    +0.040 C 
BRANCH  27  28
ATOM     28  C   UNK     1      -1.172  12.906 -31.495  1.00  0.00    +0.161 C 
BRANCH  28  29
ATOM     29  N   UNK     1      -0.228  13.445 -32.494  1.00  0.00    -0.318 NA
ATOM     30  H   UNK     1      -0.704  14.172 -33.036  1.00  0.00    +0.119 HD
ATOM     31  H   UNK     1       0.554  13.903 -32.031  1.00  0.00    +0.119 HD
ENDBRANCH  28  29
BRANCH  28  32
ATOM     32  C   UNK     1      -0.813  13.453 -30.104  1.00  0.00    +0.322 C 
ATOM     33  O   UNK     1      -0.701  12.801 -29.076  1.00  0.00    -0.249 OA
BRANCH  32  34
ATOM     34  O   UNK     1      -0.718  14.798 -30.055  1.00  0.00    -0.480 OA
ATOM     35  H   UNK     1       0.142  14.944 -29.605  1.00  0.00    +0.295 HD
ENDBRANCH  32  34
ENDBRANCH  28  32
ENDBRANCH  27  28
ENDBRANCH  26  27
ENDBRANCH  25  26
ENDBRANCH  24  25
ENDBRANCH   4  24
TORSDOF 13
ENDMDL
MODEL 5
REMARK VINA RESULT:    -6.548     10.282     12.744
REMARK INTER + INTRA:         -11.894
REMARK INTER:                 -10.908
REMARK INTRA:                  -0.986
REMARK UNBOUND:                -1.327
REMARK  Name = 
REMARK  13 active torsions:
REMARK  status: ('A' for Active; 'I' for Inactive)
REMARK    1  A    between atoms: C_2  and  C_27
REMARK    2  A    between atoms: C_4  and  N_26
REMARK    3  A    between atoms: N_9  and  C_10
REMARK    4  A    between atoms: C_11  and  O_25
REMARK    5  A    between atoms: C_12  and  O_24
REMARK    6  A    between atoms: C_13  and  C_15
REMARK    7  A    between atoms: C_15  and  S_16
REMARK    8  A    between atoms: S_16  and  C_17
REMARK    9  A    between atoms: C_17  and  C_18
REMARK   10  A    between atoms: C_18  and  C_19
REMARK   11  A    between atoms: C_19  and  C_20
REMARK   12  A    between atoms: C_19  and  N_23
REMARK   13  A    between atoms: C_20  and  O_22
REMARK                            x       y       z     vdW  Elec       q    Type
REMARK                         _______ _______ _______ _____ _____    ______ ____
ROOT
ATOM      1  C   UNK     1      -5.519   9.231 -30.906  1.00  0.00    +0.252 C 
ATOM      2  C   UNK     1      -4.914   8.062 -31.688  1.00  0.00    +0.195 C 
ATOM      3  C   UNK     1      -4.995   8.593 -33.110  1.00  0.00    +0.177 C 
ATOM      4  C   UNK     1      -4.674  10.078 -32.930  1.00  0.00    +0.162 C 
ATOM      5  O   UNK     1      -5.150  10.439 -31.615  1.00  0.00    -0.347 OA
ENDROOT
BRANCH   1  14
ATOM      6  C   UNK     1      -4.071  10.177 -29.058  1.00  0.00    +0.110 A 
ATOM      7  C   UNK     1      -3.900   9.913 -27.714  1.00  0.00    +0.082 A 
ATOM      8  C   UNK     1      -4.785   8.860 -27.356  1.00  0.00    +0.076 A 
ATOM      9  C   UNK     1      -5.100   8.141 -26.193  1.00  0.00    +0.130 A 
ATOM     10  N   UNK     1      -6.038   7.175 -26.265  1.00  0.00    -0.220 NA
ATOM     11  C   UNK     1      -6.633   6.943 -27.450  1.00  0.00    +0.225 A 
ATOM     12  N   UNK     1      -6.420   7.568 -28.619  1.00  0.00    -0.217 NA
ATOM     13  C   UNK     1      -5.477   8.517 -28.511  1.00  0.00    +0.149 A 
ATOM     14  N   UNK     1      -5.033   9.318 -29.536  1.00  0.00    -0.302 N 
BRANCH   9  15
ATOM     15  N   UNK     1      -4.516   8.350 -24.968  1.00  0.00    -0.342 N 
ATOM     16  H   UNK     1      -5.038   8.504 -24.121  1.00  0.00    +0.144 HD
ATOM     17  H   UNK     1      -3.506   8.343 -24.947  1.00  0.00    +0.144 HD
ENDBRANCH   9  15
BRANCH   7  18
ATOM     18  C   UNK     1      -2.990  10.591 -26.849  1.00  0.00    +0.101 C 
ATOM     19  N   UNK     1      -2.235  11.105 -26.132  1.00  0.00    -0.191 NA
ENDBRANCH   7  18
ENDBRANCH   1  14
BRANCH   3  20
ATOM     20  O   UNK     1      -6.349   8.417 -33.566  1.00  0.00    -0.386 OA
ATOM     21  H   UNK     1      -6.610   9.228 -34.041  1.00  0.00    +0.210 HD
ENDBRANCH   3  20
BRANCH   2  22
ATOM     22  O   UNK     1      -5.620   6.832 -31.565  1.00  0.00    -0.385 OA
ATOM     23  H   UNK     1      -5.208   6.220 -32.209  1.00  0.00    +0.210 HD
ENDBRANCH   2  22
BRANCH   4  24
ATOM     24  C   UNK     1      -3.164  10.342 -33.046  1.00  0.00    +0.103 C 
BRANCH  24  25
ATOM     25  S   UNK     1      -2.632  11.365 -34.468  1.00  0.00    -0.158 S 
BRANCH  25  26
ATOM     26  C   UNK     1      -4.128  11.385 -35.517  1.00  0.00    +0.071 C 
BRANCH  26  27
ATOM     27  C   UNK     1      -4.897  12.704 -35.445  1.00  0.00    +0.040 C 
BRANCH  27  28
ATOM     28  C   UNK     1      -5.293  13.228 -36.834  1.00  0.00    +0.161 C 
BRANCH  28  29
ATOM     29  N   UNK     1      -5.194  12.149 -37.838  1.00  0.00    -0.318 NA
ATOM     30  H   UNK     1      -5.349  11.251 -37.369  1.00  0.00    +0.119 HD
ATOM     31  H   UNK     1      -5.937  12.240 -38.529  1.00  0.00    +0.119 HD
ENDBRANCH  28  29
BRANCH  28  32
ATOM     32  C   UNK     1      -6.719  13.804 -36.839  1.00  0.00    +0.322 C 
ATOM     33  O   UNK     1      -7.437  13.951 -37.818  1.00  0.00    -0.249 OA
BRANCH  32  34
ATOM     34  O   UNK     1      -7.127  14.258 -35.637  1.00  0.00    -0.480 OA
ATOM     35  H   UNK     1      -6.628  15.097 -35.536  1.00  0.00    +0.295 HD
ENDBRANCH  32  34
ENDBRANCH  28  32
ENDBRANCH  27  28
ENDBRANCH  26  27
ENDBRANCH  25  26
ENDBRANCH  24  25
ENDBRANCH   4  24
TORSDOF 13
ENDMDL
MODEL 6
REMARK VINA RESULT:    -6.299      5.995      9.078
REMARK INTER + INTRA:         -11.492
REMARK INTER:                 -10.324
REMARK INTRA:                  -1.168
REMARK UNBOUND:                -1.327
REMARK  Name = 
REMARK  13 active torsions:
REMARK  status: ('A' for Active; 'I' for Inactive)
REMARK    1  A    between atoms: C_2  and  C_27
REMARK    2  A    between atoms: C_4  and  N_26
REMARK    3  A    between atoms: N_9  and  C_10
REMARK    4  A    between atoms: C_11  and  O_25
REMARK    5  A    between atoms: C_12  and  O_24
REMARK    6  A    between atoms: C_13  and  C_15
REMARK    7  A    between atoms: C_15  and  S_16
REMARK    8  A    between atoms: S_16  and  C_17
REMARK    9  A    between atoms: C_17  and  C_18
REMARK   10  A    between atoms: C_18  and  C_19
REMARK   11  A    between atoms: C_19  and  C_20
REMARK   12  A    between atoms: C_19  and  N_23
REMARK   13  A    between atoms: C_20  and  O_22
REMARK                            x       y       z     vdW  Elec       q    Type
REMARK                         _______ _______ _______ _____ _____    ______ ____
ROOT
ATOM      1  C   UNK     1      -3.539  13.786 -32.607  1.00  0.00    +0.252 C 
ATOM      2  C   UNK     1      -3.140  14.951 -33.517  1.00  0.00    +0.195 C 
ATOM      3  C   UNK     1      -2.547  15.918 -32.506  1.00  0.00    +0.177 C 
ATOM      4  C   UNK     1      -1.823  14.984 -31.535  1.00  0.00    +0.162 C 
ATOM      5  O   UNK     1      -2.564  13.744 -31.536  1.00  0.00    -0.347 OA
ENDROOT
BRANCH   1  14
ATOM      6  C   UNK     1      -2.884  12.184 -34.454  1.00  0.00    +0.110 A 
ATOM      7  C   UNK     1      -3.179  10.872 -34.763  1.00  0.00    +0.082 A 
ATOM      8  C   UNK     1      -4.050  10.367 -33.760  1.00  0.00    +0.076 A 
ATOM      9  C   UNK     1      -4.702   9.154 -33.487  1.00  0.00    +0.130 A 
ATOM     10  N   UNK     1      -5.475   9.071 -32.387  1.00  0.00    -0.220 NA
ATOM     11  C   UNK     1      -5.590  10.154 -31.595  1.00  0.00    +0.225 A 
ATOM     12  N   UNK     1      -5.012  11.356 -31.751  1.00  0.00    -0.217 NA
ATOM     13  C   UNK     1      -4.255  11.405 -32.858  1.00  0.00    +0.149 A 
ATOM     14  N   UNK     1      -3.548  12.500 -33.292  1.00  0.00    -0.302 N 
BRANCH   9  15
ATOM     15  N   UNK     1      -4.608   8.029 -34.269  1.00  0.00    -0.342 N 
ATOM     16  H   UNK     1      -5.097   7.915 -35.141  1.00  0.00    +0.144 HD
ATOM     17  H   UNK     1      -4.006   7.294 -33.924  1.00  0.00    +0.144 HD
ENDBRANCH   9  15
BRANCH   7  18
ATOM     18  C   UNK     1      -2.684  10.160 -35.897  1.00  0.00    +0.101 C 
ATOM     19  N   UNK     1      -2.276   9.617 -36.838  1.00  0.00    -0.191 NA
ENDBRANCH   7  18
ENDBRANCH   1  14
BRANCH   3  20
ATOM     20  O   UNK     1      -3.640  16.587 -31.848  1.00  0.00    -0.386 OA
ATOM     21  H   UNK     1      -3.299  17.424 -31.482  1.00  0.00    +0.210 HD
ENDBRANCH   3  20
BRANCH   2  22
ATOM     22  O   UNK     1      -4.218  15.554 -34.224  1.00  0.00    -0.385 OA
ATOM     23  H   UNK     1      -4.254  16.483 -33.917  1.00  0.00    +0.210 HD
ENDBRANCH   2  22
BRANCH   4  24
ATOM     24  C   UNK     1      -0.369  14.740 -31.973  1.00  0.00    +0.103 C 
BRANCH  24  25
ATOM     25  S   UNK     1       0.910  15.713 -31.094  1.00  0.00    -0.158 S 
BRANCH  25  26
ATOM     26  C   UNK     1       1.078  17.189 -32.157  1.00  0.00    +0.071 C 
BRANCH  26  27
ATOM     27  C   UNK     1       0.249  18.378 -31.674  1.00  0.00    +0.040 C 
BRANCH  27  28
ATOM     28  C   UNK     1      -0.492  19.082 -32.821  1.00  0.00    +0.161 C 
BRANCH  28  29
ATOM     29  N   UNK     1      -0.680  18.156 -33.956  1.00  0.00    -0.318 NA
ATOM     30  H   UNK     1      -1.042  18.686 -34.755  1.00  0.00    +0.119 HD
ATOM     31  H   UNK     1       0.216  17.774 -34.252  1.00  0.00    +0.119 HD
ENDBRANCH  28  29
BRANCH  28  32
ATOM     32  C   UNK     1      -1.860  19.621 -32.369  1.00  0.00    +0.322 C 
ATOM     33  O   UNK     1      -2.538  19.192 -31.447  1.00  0.00    -0.249 OA
BRANCH  32  34
ATOM     34  O   UNK     1      -2.348  20.599 -33.159  1.00  0.00    -0.480 OA
ATOM     35  H   UNK     1      -3.259  20.290 -33.356  1.00  0.00    +0.295 HD
ENDBRANCH  32  34
ENDBRANCH  28  32
ENDBRANCH  27  28
ENDBRANCH  26  27
ENDBRANCH  25  26
ENDBRANCH  24  25
ENDBRANCH   4  24
TORSDOF 13
ENDMDL
MODEL 7
REMARK VINA RESULT:    -6.285      5.488      8.817
REMARK INTER + INTRA:         -11.470
REMARK INTER:                  -9.928
REMARK INTRA:                  -1.541
REMARK UNBOUND:                -1.327
REMARK  Name = 
REMARK  13 active torsions:
REMARK  status: ('A' for Active; 'I' for Inactive)
REMARK    1  A    between atoms: C_2  and  C_27
REMARK    2  A    between atoms: C_4  and  N_26
REMARK    3  A    between atoms: N_9  and  C_10
REMARK    4  A    between atoms: C_11  and  O_25
REMARK    5  A    between atoms: C_12  and  O_24
REMARK    6  A    between atoms: C_13  and  C_15
REMARK    7  A    between atoms: C_15  and  S_16
REMARK    8  A    between atoms: S_16  and  C_17
REMARK    9  A    between atoms: C_17  and  C_18
REMARK   10  A    between atoms: C_18  and  C_19
REMARK   11  A    between atoms: C_19  and  C_20
REMARK   12  A    between atoms: C_19  and  N_23
REMARK   13  A    between atoms: C_20  and  O_22
REMARK                            x       y       z     vdW  Elec       q    Type
REMARK                         _______ _______ _______ _____ _____    ______ ____
ROOT
ATOM      1  C   UNK     1      -2.620  13.423 -31.252  1.00  0.00    +0.252 C 
ATOM      2  C   UNK     1      -1.981  12.269 -30.475  1.00  0.00    +0.195 C 
ATOM      3  C   UNK     1      -2.895  11.118 -30.864  1.00  0.00    +0.177 C 
ATOM      4  C   UNK     1      -3.201  11.417 -32.332  1.00  0.00    +0.162 C 
ATOM      5  O   UNK     1      -3.158  12.855 -32.471  1.00  0.00    -0.347 OA
ENDROOT
BRANCH   1  14
ATOM      6  C   UNK     1      -0.301  14.389 -31.566  1.00  0.00    +0.110 A 
ATOM      7  C   UNK     1       0.207  15.614 -31.947  1.00  0.00    +0.082 A 
ATOM      8  C   UNK     1      -0.887  16.479 -32.221  1.00  0.00    +0.076 A 
ATOM      9  C   UNK     1      -1.060  17.809 -32.636  1.00  0.00    +0.130 A 
ATOM     10  N   UNK     1      -2.314  18.279 -32.789  1.00  0.00    -0.220 NA
ATOM     11  C   UNK     1      -3.347  17.453 -32.537  1.00  0.00    +0.225 A 
ATOM     12  N   UNK     1      -3.303  16.171 -32.145  1.00  0.00    -0.217 NA
ATOM     13  C   UNK     1      -2.041  15.738 -31.998  1.00  0.00    +0.149 A 
ATOM     14  N   UNK     1      -1.674  14.476 -31.596  1.00  0.00    -0.302 N 
BRANCH   9  15
ATOM     15  N   UNK     1      -0.032  18.679 -32.904  1.00  0.00    -0.342 N 
ATOM     16  H   UNK     1       0.939  18.412 -32.900  1.00  0.00    +0.144 HD
ATOM     17  H   UNK     1      -0.296  19.631 -33.112  1.00  0.00    +0.144 HD
ENDBRANCH   9  15
BRANCH   7  18
ATOM     18  C   UNK     1       1.593  15.938 -32.046  1.00  0.00    +0.101 C 
ATOM     19  N   UNK     1       2.724  16.200 -32.084  1.00  0.00    -0.191 NA
ENDBRANCH   7  18
ENDBRANCH   1  14
BRANCH   3  20
ATOM     20  O   UNK     1      -4.088  11.218 -30.064  1.00  0.00    -0.386 OA
ATOM     21  H   UNK     1      -4.562  10.369 -30.131  1.00  0.00    +0.210 HD
ENDBRANCH   3  20
BRANCH   2  22
ATOM     22  O   UNK     1      -1.955  12.441 -29.062  1.00  0.00    -0.385 OA
ATOM     23  H   UNK     1      -2.824  12.826 -28.823  1.00  0.00    +0.210 HD
ENDBRANCH   2  22
BRANCH   4  24
ATOM     24  C   UNK     1      -2.173  10.757 -33.265  1.00  0.00    +0.103 C 
BRANCH  24  25
ATOM     25  S   UNK     1      -2.854   9.867 -34.713  1.00  0.00    -0.158 S 
BRANCH  25  26
ATOM     26  C   UNK     1      -4.378  10.809 -35.070  1.00  0.00    +0.071 C 
BRANCH  26  27
ATOM     27  C   UNK     1      -4.110  12.170 -35.710  1.00  0.00    +0.040 C 
BRANCH  27  28
ATOM     28  C   UNK     1      -5.171  13.216 -35.332  1.00  0.00    +0.161 C 
BRANCH  28  29
ATOM     29  N   UNK     1      -4.529  14.412 -34.752  1.00  0.00    -0.318 NA
ATOM     30  H   UNK     1      -3.643  14.577 -35.239  1.00  0.00    +0.119 HD
ATOM     31  H   UNK     1      -5.102  15.237 -34.919  1.00  0.00    +0.119 HD
ENDBRANCH  28  29
BRANCH  28  32
ATOM     32  C   UNK     1      -6.020  13.629 -36.547  1.00  0.00    +0.322 C 
ATOM     33  O   UNK     1      -5.776  13.380 -37.718  1.00  0.00    -0.249 OA
BRANCH  32  34
ATOM     34  O   UNK     1      -7.069  14.417 -36.235  1.00  0.00    -0.480 OA
ATOM     35  H   UNK     1      -7.598  14.420 -37.062  1.00  0.00    +0.295 HD
ENDBRANCH  32  34
ENDBRANCH  28  32
ENDBRANCH  27  28
ENDBRANCH  26  27
ENDBRANCH  25  26
ENDBRANCH  24  25
ENDBRANCH   4  24
TORSDOF 13
ENDMDL
MODEL 8
REMARK VINA RESULT:    -6.131      9.280     11.942
REMARK INTER + INTRA:         -11.220
REMARK INTER:                  -9.536
REMARK INTRA:                  -1.685
REMARK UNBOUND:                -1.327
REMARK  Name = 
REMARK  13 active torsions:
REMARK  status: ('A' for Active; 'I' for Inactive)
REMARK    1  A    between atoms: C_2  and  C_27
REMARK    2  A    between atoms: C_4  and  N_26
REMARK    3  A    between atoms: N_9  and  C_10
REMARK    4  A    between atoms: C_11  and  O_25
REMARK    5  A    between atoms: C_12  and  O_24
REMARK    6  A    between atoms: C_13  and  C_15
REMARK    7  A    between atoms: C_15  and  S_16
REMARK    8  A    between atoms: S_16  and  C_17
REMARK    9  A    between atoms: C_17  and  C_18
REMARK   10  A    between atoms: C_18  and  C_19
REMARK   11  A    between atoms: C_19  and  C_20
REMARK   12  A    between atoms: C_19  and  N_23
REMARK   13  A    between atoms: C_20  and  O_22
REMARK                            x       y       z     vdW  Elec       q    Type
REMARK                         _______ _______ _______ _____ _____    ______ ____
ROOT
ATOM      1  C   UNK     1      -5.672   9.162 -30.842  1.00  0.00    +0.252 C 
ATOM      2  C   UNK     1      -5.099   8.003 -31.662  1.00  0.00    +0.195 C 
ATOM      3  C   UNK     1      -5.294   8.524 -33.076  1.00  0.00    +0.177 C 
ATOM      4  C   UNK     1      -4.995  10.017 -32.925  1.00  0.00    +0.162 C 
ATOM      5  O   UNK     1      -5.383  10.375 -31.580  1.00  0.00    -0.347 OA
ENDROOT
BRANCH   1  14
ATOM      6  C   UNK     1      -4.076  10.112 -29.122  1.00  0.00    +0.110 A 
ATOM      7  C   UNK     1      -3.819   9.873 -27.787  1.00  0.00    +0.082 A 
ATOM      8  C   UNK     1      -4.702   8.853 -27.343  1.00  0.00    +0.076 A 
ATOM      9  C   UNK     1      -4.954   8.168 -26.143  1.00  0.00    +0.130 A 
ATOM     10  N   UNK     1      -5.918   7.227 -26.127  1.00  0.00    -0.220 NA
ATOM     11  C   UNK     1      -6.600   6.983 -27.262  1.00  0.00    +0.225 A 
ATOM     12  N   UNK     1      -6.453   7.575 -28.458  1.00  0.00    -0.217 NA
ATOM     13  C   UNK     1      -5.482   8.501 -28.439  1.00  0.00    +0.149 A 
ATOM     14  N   UNK     1      -5.090   9.267 -29.511  1.00  0.00    -0.302 N 
BRANCH   9  15
ATOM     15  N   UNK     1      -4.281   8.390 -24.967  1.00  0.00    -0.342 N 
ATOM     16  H   UNK     1      -4.364   9.237 -24.429  1.00  0.00    +0.144 HD
ATOM     17  H   UNK     1      -3.678   7.645 -24.650  1.00  0.00    +0.144 HD
ENDBRANCH   9  15
BRANCH   7  18
ATOM     18  C   UNK     1      -2.834  10.547 -27.003  1.00  0.00    +0.101 C 
ATOM     19  N   UNK     1      -2.049  11.131 -26.379  1.00  0.00    -0.191 NA
ENDBRANCH   7  18
ENDBRANCH   1  14
BRANCH   3  20
ATOM     20  O   UNK     1      -6.673   8.315 -33.432  1.00  0.00    -0.386 OA
ATOM     21  H   UNK     1      -6.863   8.861 -34.217  1.00  0.00    +0.210 HD
ENDBRANCH   3  20
BRANCH   2  22
ATOM     22  O   UNK     1      -5.765   6.758 -31.483  1.00  0.00    -0.385 OA
ATOM     23  H   UNK     1      -5.999   6.447 -32.382  1.00  0.00    +0.210 HD
ENDBRANCH   2  22
BRANCH   4  24
ATOM     24  C   UNK     1      -3.504  10.315 -33.151  1.00  0.00    +0.103 C 
BRANCH  24  25
ATOM     25  S   UNK     1      -3.043  10.894 -34.826  1.00  0.00    -0.158 S 
BRANCH  25  26
ATOM     26  C   UNK     1      -3.441  12.676 -34.747  1.00  0.00    +0.071 C 
BRANCH  26  27
ATOM     27  C   UNK     1      -2.680  13.415 -33.649  1.00  0.00    +0.040 C 
BRANCH  27  28
ATOM     28  C   UNK     1      -3.608  14.242 -32.745  1.00  0.00    +0.161 C 
BRANCH  28  29
ATOM     29  N   UNK     1      -4.906  14.467 -33.412  1.00  0.00    -0.318 NA
ATOM     30  H   UNK     1      -4.908  15.410 -33.813  1.00  0.00    +0.119 HD
ATOM     31  H   UNK     1      -5.017  13.826 -34.195  1.00  0.00    +0.119 HD
ENDBRANCH  28  29
BRANCH  28  32
ATOM     32  C   UNK     1      -3.842  13.554 -31.389  1.00  0.00    +0.322 C 
ATOM     33  O   UNK     1      -2.979  13.121 -30.639  1.00  0.00    -0.249 OA
BRANCH  32  34
ATOM     34  O   UNK     1      -5.144  13.354 -31.097  1.00  0.00    -0.480 OA
ATOM     35  H   UNK     1      -5.601  14.008 -31.667  1.00  0.00    +0.295 HD
ENDBRANCH  32  34
ENDBRANCH  28  32
ENDBRANCH  27  28
ENDBRANCH  26  27
ENDBRANCH  25  26
ENDBRANCH  24  25
ENDBRANCH   4  24
TORSDOF 13
ENDMDL
MODEL 9
REMARK VINA RESULT:    -6.018      6.941      9.686
REMARK INTER + INTRA:         -11.039
REMARK INTER:                 -10.148
REMARK INTRA:                  -0.891
REMARK UNBOUND:                -1.327
REMARK  Name = 
REMARK  13 active torsions:
REMARK  status: ('A' for Active; 'I' for Inactive)
REMARK    1  A    between atoms: C_2  and  C_27
REMARK    2  A    between atoms: C_4  and  N_26
REMARK    3  A    between atoms: N_9  and  C_10
REMARK    4  A    between atoms: C_11  and  O_25
REMARK    5  A    between atoms: C_12  and  O_24
REMARK    6  A    between atoms: C_13  and  C_15
REMARK    7  A    between atoms: C_15  and  S_16
REMARK    8  A    between atoms: S_16  and  C_17
REMARK    9  A    between atoms: C_17  and  C_18
REMARK   10  A    between atoms: C_18  and  C_19
REMARK   11  A    between atoms: C_19  and  C_20
REMARK   12  A    between atoms: C_19  and  N_23
REMARK   13  A    between atoms: C_20  and  O_22
REMARK                            x       y       z     vdW  Elec       q    Type
REMARK                         _______ _______ _______ _____ _____    ______ ____
ROOT
ATOM      1  C   UNK     1      -4.558  12.643 -32.119  1.00  0.00    +0.252 C 
ATOM      2  C   UNK     1      -4.034  12.816 -33.548  1.00  0.00    +0.195 C 
ATOM      3  C   UNK     1      -3.904  14.328 -33.626  1.00  0.00    +0.177 C 
ATOM      4  C   UNK     1      -3.414  14.694 -32.224  1.00  0.00    +0.162 C 
ATOM      5  O   UNK     1      -3.968  13.704 -31.329  1.00  0.00    -0.347 OA
ENDROOT
BRANCH   1  14
ATOM      6  C   UNK     1      -3.239  11.131 -30.575  1.00  0.00    +0.110 A 
ATOM      7  C   UNK     1      -3.216   9.777 -30.314  1.00  0.00    +0.082 A 
ATOM      8  C   UNK     1      -4.198   9.153 -31.131  1.00  0.00    +0.076 A 
ATOM      9  C   UNK     1      -4.670   7.849 -31.348  1.00  0.00    +0.130 A 
ATOM     10  N   UNK     1      -5.656   7.661 -32.247  1.00  0.00    -0.220 NA
ATOM     11  C   UNK     1      -6.147   8.732 -32.898  1.00  0.00    +0.225 A 
ATOM     12  N   UNK     1      -5.782  10.017 -32.769  1.00  0.00    -0.217 NA
ATOM     13  C   UNK     1      -4.795  10.166 -31.872  1.00  0.00    +0.149 A 
ATOM     14  N   UNK     1      -4.203  11.358 -31.530  1.00  0.00    -0.302 N 
BRANCH   9  15
ATOM     15  N   UNK     1      -4.196   6.734 -30.702  1.00  0.00    -0.342 N 
ATOM     16  H   UNK     1      -3.218   6.557 -30.542  1.00  0.00    +0.144 HD
ATOM     17  H   UNK     1      -4.890   6.074 -30.381  1.00  0.00    +0.144 HD
ENDBRANCH   9  15
BRANCH   7  18
ATOM     18  C   UNK     1      -2.353   9.131 -29.378  1.00  0.00    +0.101 C 
ATOM     19  N   UNK     1      -1.621   8.632 -28.628  1.00  0.00    -0.191 NA
ENDBRANCH   7  18
ENDBRANCH   1  14
BRANCH   3  20
ATOM     20  O   UNK     1      -5.218  14.868 -33.863  1.00  0.00    -0.386 OA
ATOM     21  H   UNK     1      -5.428  15.471 -33.126  1.00  0.00    +0.210 HD
ENDBRANCH   3  20
BRANCH   2  22
ATOM     22  O   UNK     1      -4.901  12.328 -34.566  1.00  0.00    -0.385 OA
ATOM     23  H   UNK     1      -4.626  12.778 -35.391  1.00  0.00    +0.210 HD
ENDBRANCH   2  22
BRANCH   4  24
ATOM     24  C   UNK     1      -1.879  14.687 -32.148  1.00  0.00    +0.103 C 
BRANCH  24  25
ATOM     25  S   UNK     1      -1.052  16.299 -32.417  1.00  0.00    -0.158 S 
BRANCH  25  26
ATOM     26  C   UNK     1      -2.466  17.453 -32.511  1.00  0.00    +0.071 C 
BRANCH  26  27
ATOM     27  C   UNK     1      -2.049  18.922 -32.459  1.00  0.00    +0.040 C 
BRANCH  27  28
ATOM     28  C   UNK     1      -3.060  19.792 -31.696  1.00  0.00    +0.161 C 
BRANCH  28  29
ATOM     29  N   UNK     1      -2.694  19.872 -30.268  1.00  0.00    -0.318 NA
ATOM     30  H   UNK     1      -3.553  19.920 -29.712  1.00  0.00    +0.119 HD
ATOM     31  H   UNK     1      -2.216  19.021 -29.978  1.00  0.00    +0.119 HD
ENDBRANCH  28  29
BRANCH  28  32
ATOM     32  C   UNK     1      -3.146  21.211 -32.283  1.00  0.00    +0.322 C 
ATOM     33  O   UNK     1      -3.447  22.229 -31.676  1.00  0.00    -0.249 OA
BRANCH  32  34
ATOM     34  O   UNK     1      -2.952  21.262 -33.617  1.00  0.00    -0.480 OA
ATOM     35  H   UNK     1      -2.816  20.320 -33.857  1.00  0.00    +0.295 HD
ENDBRANCH  32  34
ENDBRANCH  28  32
ENDBRANCH  27  28
ENDBRANCH  26  27
ENDBRANCH  25  26
ENDBRANCH  24  25
ENDBRANCH   4  24
TORSDOF 13
ENDMDL
