MODEL 1
REMARK VINA RESULT:    -7.338      0.000      0.000
REMARK INTER + INTRA:         -13.368
REMARK INTER:                 -11.842
REMARK INTRA:                  -1.525
REMARK UNBOUND:                -1.525
REMARK  Name = 
REMARK  13 active torsions:
REMARK  status: ('A' for Active; 'I' for Inactive)
REMARK    1  A    between atoms: C_2  and  C_27
REMARK    2  A    between atoms: C_4  and  N_26
REMARK    3  A    between atoms: N_9  and  C_10
REMARK    4  A    between atoms: C_11  and  O_25
REMARK    5  A    between atoms: C_12  and  O_24
REMARK    6  A    between atoms: C_13  and  C_15
REMARK    7  A    between atoms: C_15  and  S_16
REMARK    8  A    between atoms: S_16  and  C_17
REMARK    9  A    between atoms: C_17  and  C_18
REMARK   10  A    between atoms: C_18  and  C_19
REMARK   11  A    between atoms: C_19  and  C_20
REMARK   12  A    between atoms: C_19  and  N_23
REMARK   13  A    between atoms: C_20  and  O_22
REMARK                            x       y       z     vdW  Elec       q    Type
REMARK                         _______ _______ _______ _____ _____    ______ ____
ROOT
ATOM      1  C   UNK     1      -2.357  19.121 -32.800  1.00  0.00    +0.252 C 
ATOM      2  C   UNK     1      -2.578  17.742 -32.171  1.00  0.00    +0.195 C 
ATOM      3  C   UNK     1      -1.527  16.921 -32.899  1.00  0.00    +0.177 C 
ATOM      4  C   UNK     1      -0.358  17.902 -33.015  1.00  0.00    +0.162 C 
ATOM      5  O   UNK     1      -0.942  19.221 -33.094  1.00  0.00    -0.347 OA
ENDROOT
BRANCH   1  14
ATOM      6  C   UNK     1      -2.705  20.221 -30.546  1.00  0.00    +0.110 A 
ATOM      7  C   UNK     1      -3.166  21.449 -30.116  1.00  0.00    +0.082 A 
ATOM      8  C   UNK     1      -3.490  22.225 -31.262  1.00  0.00    +0.076 A 
ATOM      9  C   UNK     1      -3.990  23.511 -31.517  1.00  0.00    +0.130 A 
ATOM     10  N   UNK     1      -4.166  23.892 -32.798  1.00  0.00    -0.220 NA
ATOM     11  C   UNK     1      -3.853  23.023 -33.778  1.00  0.00    +0.225 A 
ATOM     12  N   UNK     1      -3.364  21.780 -33.655  1.00  0.00    -0.217 NA
ATOM     13  C   UNK     1      -3.208  21.432 -32.368  1.00  0.00    +0.149 A 
ATOM     14  N   UNK     1      -2.738  20.219 -31.922  1.00  0.00    -0.302 N 
BRANCH   9  15
ATOM     15  N   UNK     1      -4.319  24.424 -30.546  1.00  0.00    -0.342 N 
ATOM     16  H   UNK     1      -4.840  24.191 -29.716  1.00  0.00    +0.144 HD
ATOM     17  H   UNK     1      -4.006  25.372 -30.699  1.00  0.00    +0.144 HD
ENDBRANCH   9  15
BRANCH   7  18
ATOM     18  C   UNK     1      -3.286  21.853 -28.753  1.00  0.00    +0.101 C 
ATOM     19  N   UNK     1      -3.361  22.150 -27.632  1.00  0.00    -0.191 NA
ENDBRANCH   7  18
ENDBRANCH   1  14
BRANCH   3  20
ATOM     20  O   UNK     1      -2.049  16.597 -34.201  1.00  0.00    -0.386 OA
ATOM     21  H   UNK     1      -2.985  16.872 -34.222  1.00  0.00    +0.210 HD
ENDBRANCH   3  20
BRANCH   2  22
ATOM     22  O   UNK     1      -3.877  17.196 -32.371  1.00  0.00    -0.385 OA
ATOM     23  H   UNK     1      -4.296  17.746 -33.064  1.00  0.00    +0.210 HD
ENDBRANCH   2  22
BRANCH   4  24
ATOM     24  C   UNK     1       0.579  17.802 -31.800  1.00  0.00    +0.103 C 
BRANCH  24  25
ATOM     25  S   UNK     1       1.586  19.288 -31.436  1.00  0.00    -0.158 S 
BRANCH  25  26
ATOM     26  C   UNK     1       1.100  19.678 -29.719  1.00  0.00    +0.071 C 
BRANCH  26  27
ATOM     27  C   UNK     1       0.637  21.123 -29.537  1.00  0.00    +0.040 C 
BRANCH  27  28
ATOM     28  C   UNK     1       1.693  21.995 -28.839  1.00  0.00    +0.161 C 
BRANCH  28  29
ATOM     29  N   UNK     1       2.619  22.573 -29.833  1.00  0.00    -0.318 NA
ATOM     30  H   UNK     1       3.352  21.887 -30.036  1.00  0.00    +0.119 HD
ATOM     31  H   UNK     1       2.135  22.739 -30.713  1.00  0.00    +0.119 HD
ENDBRANCH  28  29
BRANCH  28  32
ATOM     32  C   UNK     1       1.047  23.126 -28.021  1.00  0.00    +0.322 C 
ATOM     33  O   UNK     1       1.595  24.152 -27.647  1.00  0.00    -0.249 OA
BRANCH  32  34
ATOM     34  O   UNK     1      -0.217  22.861 -27.630  1.00  0.00    -0.480 OA
ATOM     35  H   UNK     1      -0.191  21.900 -27.433  1.00  0.00    +0.295 HD
ENDBRANCH  32  34
ENDBRANCH  28  32
ENDBRANCH  27  28
ENDBRANCH  26  27
ENDBRANCH  25  26
ENDBRANCH  24  25
ENDBRANCH   4  24
TORSDOF 13
ENDMDL
MODEL 2
REMARK VINA RESULT:    -7.222      2.773      4.907
REMARK INTER + INTRA:         -13.180
REMARK INTER:                 -11.963
REMARK INTRA:                  -1.217
REMARK UNBOUND:                -1.525
REMARK  Name = 
REMARK  13 active torsions:
REMARK  status: ('A' for Active; 'I' for Inactive)
REMARK    1  A    between atoms: C_2  and  C_27
REMARK    2  A    between atoms: C_4  and  N_26
REMARK    3  A    between atoms: N_9  and  C_10
REMARK    4  A    between atoms: C_11  and  O_25
REMARK    5  A    between atoms: C_12  and  O_24
REMARK    6  A    between atoms: C_13  and  C_15
REMARK    7  A    between atoms: C_15  and  S_16
REMARK    8  A    between atoms: S_16  and  C_17
REMARK    9  A    between atoms: C_17  and  C_18
REMARK   10  A    between atoms: C_18  and  C_19
REMARK   11  A    between atoms: C_19  and  C_20
REMARK   12  A    between atoms: C_19  and  N_23
REMARK   13  A    between atoms: C_20  and  O_22
REMARK                            x       y       z     vdW  Elec       q    Type
REMARK                         _______ _______ _______ _____ _____    ______ ____
ROOT
ATOM      1  C   UNK     1      -2.239  19.173 -32.843  1.00  0.00    +0.252 C 
ATOM      2  C   UNK     1      -2.554  17.776 -32.301  1.00  0.00    +0.195 C 
ATOM      3  C   UNK     1      -1.459  16.956 -32.963  1.00  0.00    +0.177 C 
ATOM      4  C   UNK     1      -0.261  17.905 -32.924  1.00  0.00    +0.162 C 
ATOM      5  O   UNK     1      -0.801  19.243 -32.998  1.00  0.00    -0.347 OA
ENDROOT
BRANCH   1  14
ATOM      6  C   UNK     1      -2.670  20.224 -30.580  1.00  0.00    +0.110 A 
ATOM      7  C   UNK     1      -3.179  21.429 -30.140  1.00  0.00    +0.082 A 
ATOM      8  C   UNK     1      -3.504  22.213 -31.280  1.00  0.00    +0.076 A 
ATOM      9  C   UNK     1      -4.040  23.486 -31.526  1.00  0.00    +0.130 A 
ATOM     10  N   UNK     1      -4.202  23.883 -32.804  1.00  0.00    -0.220 NA
ATOM     11  C   UNK     1      -3.840  23.041 -33.790  1.00  0.00    +0.225 A 
ATOM     12  N   UNK     1      -3.314  21.812 -33.676  1.00  0.00    -0.217 NA
ATOM     13  C   UNK     1      -3.174  21.448 -32.392  1.00  0.00    +0.149 A 
ATOM     14  N   UNK     1      -2.674  20.244 -31.956  1.00  0.00    -0.302 N 
BRANCH   9  15
ATOM     15  N   UNK     1      -4.418  24.372 -30.547  1.00  0.00    -0.342 N 
ATOM     16  H   UNK     1      -4.639  25.338 -30.725  1.00  0.00    +0.144 HD
ATOM     17  H   UNK     1      -4.469  24.005 -29.607  1.00  0.00    +0.144 HD
ENDBRANCH   9  15
BRANCH   7  18
ATOM     18  C   UNK     1      -3.341  21.806 -28.773  1.00  0.00    +0.101 C 
ATOM     19  N   UNK     1      -3.439  22.091 -27.652  1.00  0.00    -0.191 NA
ENDBRANCH   7  18
ENDBRANCH   1  14
BRANCH   3  20
ATOM     20  O   UNK     1      -1.864  16.703 -34.322  1.00  0.00    -0.386 OA
ATOM     21  H   UNK     1      -1.270  17.209 -34.907  1.00  0.00    +0.210 HD
ENDBRANCH   3  20
BRANCH   2  22
ATOM     22  O   UNK     1      -3.841  17.277 -32.646  1.00  0.00    -0.385 OA
ATOM     23  H   UNK     1      -4.420  17.475 -31.881  1.00  0.00    +0.210 HD
ENDBRANCH   2  22
BRANCH   4  24
ATOM     24  C   UNK     1       0.553  17.725 -31.632  1.00  0.00    +0.103 C 
BRANCH  24  25
ATOM     25  S   UNK     1       1.705  16.302 -31.598  1.00  0.00    -0.158 S 
BRANCH  25  26
ATOM     26  C   UNK     1       0.643  14.954 -30.973  1.00  0.00    +0.071 C 
BRANCH  26  27
ATOM     27  C   UNK     1       0.235  13.956 -32.056  1.00  0.00    +0.040 C 
BRANCH  27  28
ATOM     28  C   UNK     1      -1.057  13.203 -31.704  1.00  0.00    +0.161 C 
BRANCH  28  29
ATOM     29  N   UNK     1      -1.419  13.438 -30.291  1.00  0.00    -0.318 NA
ATOM     30  H   UNK     1      -2.373  13.811 -30.255  1.00  0.00    +0.119 HD
ATOM     31  H   UNK     1      -1.441  12.557 -29.781  1.00  0.00    +0.119 HD
ENDBRANCH  28  29
BRANCH  28  32
ATOM     32  C   UNK     1      -2.226  13.627 -32.609  1.00  0.00    +0.322 C 
ATOM     33  O   UNK     1      -2.269  13.532 -33.827  1.00  0.00    -0.249 OA
BRANCH  32  34
ATOM     34  O   UNK     1      -3.231  14.239 -31.950  1.00  0.00    -0.480 OA
ATOM     35  H   UNK     1      -2.785  14.607 -31.157  1.00  0.00    +0.295 HD
ENDBRANCH  32  34
ENDBRANCH  28  32
ENDBRANCH  27  28
ENDBRANCH  26  27
ENDBRANCH  25  26
ENDBRANCH  24  25
ENDBRANCH   4  24
TORSDOF 13
ENDMDL
MODEL 3
REMARK VINA RESULT:    -6.908      1.486      1.637
REMARK INTER + INTRA:         -12.674
REMARK INTER:                 -11.582
REMARK INTRA:                  -1.092
REMARK UNBOUND:                -1.525
REMARK  Name = 
REMARK  13 active torsions:
REMARK  status: ('A' for Active; 'I' for Inactive)
REMARK    1  A    between atoms: C_2  and  C_27
REMARK    2  A    between atoms: C_4  and  N_26
REMARK    3  A    between atoms: N_9  and  C_10
REMARK    4  A    between atoms: C_11  and  O_25
REMARK    5  A    between atoms: C_12  and  O_24
REMARK    6  A    between atoms: C_13  and  C_15
REMARK    7  A    between atoms: C_15  and  S_16
REMARK    8  A    between atoms: S_16  and  C_17
REMARK    9  A    between atoms: C_17  and  C_18
REMARK   10  A    between atoms: C_18  and  C_19
REMARK   11  A    between atoms: C_19  and  C_20
REMARK   12  A    between atoms: C_19  and  N_23
REMARK   13  A    between atoms: C_20  and  O_22
REMARK                            x       y       z     vdW  Elec       q    Type
REMARK                         _______ _______ _______ _____ _____    ______ ____
ROOT
ATOM      1  C   UNK     1      -2.253  19.168 -32.865  1.00  0.00    +0.252 C 
ATOM      2  C   UNK     1      -2.563  17.776 -32.308  1.00  0.00    +0.195 C 
ATOM      3  C   UNK     1      -1.485  16.947 -32.986  1.00  0.00    +0.177 C 
ATOM      4  C   UNK     1      -0.282  17.892 -32.976  1.00  0.00    +0.162 C 
ATOM      5  O   UNK     1      -0.818  19.231 -33.049  1.00  0.00    -0.347 OA
ENDROOT
BRANCH   1  14
ATOM      6  C   UNK     1      -2.635  20.236 -30.602  1.00  0.00    +0.110 A 
ATOM      7  C   UNK     1      -3.131  21.445 -30.160  1.00  0.00    +0.082 A 
ATOM      8  C   UNK     1      -3.476  22.223 -31.299  1.00  0.00    +0.076 A 
ATOM      9  C   UNK     1      -4.013  23.497 -31.542  1.00  0.00    +0.130 A 
ATOM     10  N   UNK     1      -4.198  23.885 -32.819  1.00  0.00    -0.220 NA
ATOM     11  C   UNK     1      -3.860  23.035 -33.807  1.00  0.00    +0.225 A 
ATOM     12  N   UNK     1      -3.335  21.805 -33.696  1.00  0.00    -0.217 NA
ATOM     13  C   UNK     1      -3.171  21.449 -32.412  1.00  0.00    +0.149 A 
ATOM     14  N   UNK     1      -2.667  20.247 -31.977  1.00  0.00    -0.302 N 
BRANCH   9  15
ATOM     15  N   UNK     1      -4.368  24.390 -30.562  1.00  0.00    -0.342 N 
ATOM     16  H   UNK     1      -3.945  25.298 -30.456  1.00  0.00    +0.144 HD
ATOM     17  H   UNK     1      -5.097  24.093 -29.929  1.00  0.00    +0.144 HD
ENDBRANCH   9  15
BRANCH   7  18
ATOM     18  C   UNK     1      -3.264  21.833 -28.793  1.00  0.00    +0.101 C 
ATOM     19  N   UNK     1      -3.335  22.169 -27.684  1.00  0.00    -0.191 NA
ENDBRANCH   7  18
ENDBRANCH   1  14
BRANCH   3  20
ATOM     20  O   UNK     1      -1.917  16.687 -34.335  1.00  0.00    -0.386 OA
ATOM     21  H   UNK     1      -1.538  17.380 -34.907  1.00  0.00    +0.210 HD
ENDBRANCH   3  20
BRANCH   2  22
ATOM     22  O   UNK     1      -3.859  17.280 -32.625  1.00  0.00    -0.385 OA
ATOM     23  H   UNK     1      -3.857  16.336 -32.364  1.00  0.00    +0.210 HD
ENDBRANCH   2  22
BRANCH   4  24
ATOM     24  C   UNK     1       0.556  17.717 -31.699  1.00  0.00    +0.103 C 
BRANCH  24  25
ATOM     25  S   UNK     1       2.281  17.148 -31.940  1.00  0.00    -0.158 S 
BRANCH  25  26
ATOM     26  C   UNK     1       3.247  18.639 -31.516  1.00  0.00    +0.071 C 
BRANCH  26  27
ATOM     27  C   UNK     1       2.390  19.779 -30.969  1.00  0.00    +0.040 C 
BRANCH  27  28
ATOM     28  C   UNK     1       3.133  20.622 -29.921  1.00  0.00    +0.161 C 
BRANCH  28  29
ATOM     29  N   UNK     1       2.878  22.060 -30.145  1.00  0.00    -0.318 NA
ATOM     30  H   UNK     1       1.942  22.284 -29.795  1.00  0.00    +0.119 HD
ATOM     31  H   UNK     1       3.528  22.623 -29.599  1.00  0.00    +0.119 HD
ENDBRANCH  28  29
BRANCH  28  32
ATOM     32  C   UNK     1       2.719  20.245 -28.489  1.00  0.00    +0.322 C 
ATOM     33  O   UNK     1       2.121  20.959 -27.697  1.00  0.00    -0.249 OA
BRANCH  32  34
ATOM     34  O   UNK     1       3.166  19.036 -28.093  1.00  0.00    -0.480 OA
ATOM     35  H   UNK     1       3.630  19.236 -27.252  1.00  0.00    +0.295 HD
ENDBRANCH  32  34
ENDBRANCH  28  32
ENDBRANCH  27  28
ENDBRANCH  26  27
ENDBRANCH  25  26
ENDBRANCH  24  25
ENDBRANCH   4  24
TORSDOF 13
ENDMDL
MODEL 4
REMARK VINA RESULT:    -6.793      3.050      4.556
REMARK INTER + INTRA:         -12.488
REMARK INTER:                 -11.621
REMARK INTRA:                  -0.866
REMARK UNBOUND:                -1.525
REMARK  Name = 
REMARK  13 active torsions:
REMARK  status: ('A' for Active; 'I' for Inactive)
REMARK    1  A    between atoms: C_2  and  C_27
REMARK    2  A    between atoms: C_4  and  N_26
REMARK    3  A    between atoms: N_9  and  C_10
REMARK    4  A    between atoms: C_11  and  O_25
REMARK    5  A    between atoms: C_12  and  O_24
REMARK    6  A    between atoms: C_13  and  C_15
REMARK    7  A    between atoms: C_15  and  S_16
REMARK    8  A    between atoms: S_16  and  C_17
REMARK    9  A    between atoms: C_17  and  C_18
REMARK   10  A    between atoms: C_18  and  C_19
REMARK   11  A    between atoms: C_19  and  C_20
REMARK   12  A    between atoms: C_19  and  N_23
REMARK   13  A    between atoms: C_20  and  O_22
REMARK                            x       y       z     vdW  Elec       q    Type
REMARK                         _______ _______ _______ _____ _____    ______ ____
ROOT
ATOM      1  C   UNK     1      -2.401  19.129 -32.773  1.00  0.00    +0.252 C 
ATOM      2  C   UNK     1      -2.636  17.751 -32.146  1.00  0.00    +0.195 C 
ATOM      3  C   UNK     1      -1.590  16.922 -32.873  1.00  0.00    +0.177 C 
ATOM      4  C   UNK     1      -0.413  17.891 -32.984  1.00  0.00    +0.162 C 
ATOM      5  O   UNK     1      -0.984  19.216 -33.064  1.00  0.00    -0.347 OA
ENDROOT
BRANCH   1  14
ATOM      6  C   UNK     1      -2.735  20.233 -30.520  1.00  0.00    +0.110 A 
ATOM      7  C   UNK     1      -3.189  21.463 -30.089  1.00  0.00    +0.082 A 
ATOM      8  C   UNK     1      -3.514  22.239 -31.234  1.00  0.00    +0.076 A 
ATOM      9  C   UNK     1      -4.009  23.528 -31.490  1.00  0.00    +0.130 A 
ATOM     10  N   UNK     1      -4.188  23.908 -32.770  1.00  0.00    -0.220 NA
ATOM     11  C   UNK     1      -3.883  23.037 -33.750  1.00  0.00    +0.225 A 
ATOM     12  N   UNK     1      -3.399  21.791 -33.627  1.00  0.00    -0.217 NA
ATOM     13  C   UNK     1      -3.240  21.444 -32.341  1.00  0.00    +0.149 A 
ATOM     14  N   UNK     1      -2.774  20.230 -31.895  1.00  0.00    -0.302 N 
BRANCH   9  15
ATOM     15  N   UNK     1      -4.330  24.443 -30.518  1.00  0.00    -0.342 N 
ATOM     16  H   UNK     1      -5.124  25.059 -30.573  1.00  0.00    +0.144 HD
ATOM     17  H   UNK     1      -3.718  24.476 -29.715  1.00  0.00    +0.144 HD
ENDBRANCH   9  15
BRANCH   7  18
ATOM     18  C   UNK     1      -3.302  21.870 -28.725  1.00  0.00    +0.101 C 
ATOM     19  N   UNK     1      -3.394  22.241 -27.629  1.00  0.00    -0.191 NA
ENDBRANCH   7  18
ENDBRANCH   1  14
BRANCH   3  20
ATOM     20  O   UNK     1      -2.113  16.604 -34.176  1.00  0.00    -0.386 OA
ATOM     21  H   UNK     1      -2.865  15.995 -34.054  1.00  0.00    +0.210 HD
ENDBRANCH   3  20
BRANCH   2  22
ATOM     22  O   UNK     1      -3.939  17.217 -32.349  1.00  0.00    -0.385 OA
ATOM     23  H   UNK     1      -4.553  17.979 -32.294  1.00  0.00    +0.210 HD
ENDBRANCH   2  22
BRANCH   4  24
ATOM     24  C   UNK     1       0.520  17.781 -31.767  1.00  0.00    +0.103 C 
BRANCH  24  25
ATOM     25  S   UNK     1       1.841  16.517 -31.877  1.00  0.00    -0.158 S 
BRANCH  25  26
ATOM     26  C   UNK     1       1.075  15.078 -31.051  1.00  0.00    +0.071 C 
BRANCH  26  27
ATOM     27  C   UNK     1       0.997  15.226 -29.533  1.00  0.00    +0.040 C 
BRANCH  27  28
ATOM     28  C   UNK     1       1.433  13.951 -28.795  1.00  0.00    +0.161 C 
BRANCH  28  29
ATOM     29  N   UNK     1       1.568  14.214 -27.348  1.00  0.00    -0.318 NA
ATOM     30  H   UNK     1       0.632  14.244 -26.933  1.00  0.00    +0.119 HD
ATOM     31  H   UNK     1       2.055  13.446 -26.893  1.00  0.00    +0.119 HD
ENDBRANCH  28  29
BRANCH  28  32
ATOM     32  C   UNK     1       0.439  12.798 -29.016  1.00  0.00    +0.322 C 
ATOM     33  O   UNK     1      -0.779  12.869 -28.942  1.00  0.00    -0.249 OA
BRANCH  32  34
ATOM     34  O   UNK     1       1.029  11.601 -29.213  1.00  0.00    -0.480 OA
ATOM     35  H   UNK     1       0.600  11.029 -28.540  1.00  0.00    +0.295 HD
ENDBRANCH  32  34
ENDBRANCH  28  32
ENDBRANCH  27  28
ENDBRANCH  26  27
ENDBRANCH  25  26
ENDBRANCH  24  25
ENDBRANCH   4  24
TORSDOF 13
ENDMDL
MODEL 5
REMARK VINA RESULT:    -6.480      2.742      3.322
REMARK INTER + INTRA:         -11.983
REMARK INTER:                 -11.145
REMARK INTRA:                  -0.837
REMARK UNBOUND:                -1.525
REMARK  Name = 
REMARK  13 active torsions:
REMARK  status: ('A' for Active; 'I' for Inactive)
REMARK    1  A    between atoms: C_2  and  C_27
REMARK    2  A    between atoms: C_4  and  N_26
REMARK    3  A    between atoms: N_9  and  C_10
REMARK    4  A    between atoms: C_11  and  O_25
REMARK    5  A    between atoms: C_12  and  O_24
REMARK    6  A    between atoms: C_13  and  C_15
REMARK    7  A    between atoms: C_15  and  S_16
REMARK    8  A    between atoms: S_16  and  C_17
REMARK    9  A    between atoms: C_17  and  C_18
REMARK   10  A    between atoms: C_18  and  C_19
REMARK   11  A    between atoms: C_19  and  C_20
REMARK   12  A    between atoms: C_19  and  N_23
REMARK   13  A    between atoms: C_20  and  O_22
REMARK                            x       y       z     vdW  Elec       q    Type
REMARK                         _______ _______ _______ _____ _____    ______ ____
ROOT
ATOM      1  C   UNK     1      -2.219  19.169 -32.791  1.00  0.00    +0.252 C 
ATOM      2  C   UNK     1      -2.468  17.779 -32.198  1.00  0.00    +0.195 C 
ATOM      3  C   UNK     1      -1.376  16.973 -32.884  1.00  0.00    +0.177 C 
ATOM      4  C   UNK     1      -0.207  17.959 -32.921  1.00  0.00    +0.162 C 
ATOM      5  O   UNK     1      -0.791  19.277 -33.009  1.00  0.00    -0.347 OA
ENDROOT
BRANCH   1  14
ATOM      6  C   UNK     1      -2.631  20.253 -30.541  1.00  0.00    +0.110 A 
ATOM      7  C   UNK     1      -3.142  21.462 -30.115  1.00  0.00    +0.082 A 
ATOM      8  C   UNK     1      -3.484  22.226 -31.264  1.00  0.00    +0.076 A 
ATOM      9  C   UNK     1      -4.029  23.493 -31.524  1.00  0.00    +0.130 A 
ATOM     10  N   UNK     1      -4.207  23.868 -32.806  1.00  0.00    -0.220 NA
ATOM     11  C   UNK     1      -3.851  23.012 -33.783  1.00  0.00    +0.225 A 
ATOM     12  N   UNK     1      -3.317  21.788 -33.655  1.00  0.00    -0.217 NA
ATOM     13  C   UNK     1      -3.161  21.445 -32.367  1.00  0.00    +0.149 A 
ATOM     14  N   UNK     1      -2.650  20.251 -31.917  1.00  0.00    -0.302 N 
BRANCH   9  15
ATOM     15  N   UNK     1      -4.402  24.392 -30.555  1.00  0.00    -0.342 N 
ATOM     16  H   UNK     1      -4.838  24.127 -29.687  1.00  0.00    +0.144 HD
ATOM     17  H   UNK     1      -4.213  25.364 -30.752  1.00  0.00    +0.144 HD
ENDBRANCH   9  15
BRANCH   7  18
ATOM     18  C   UNK     1      -3.291  21.861 -28.753  1.00  0.00    +0.101 C 
ATOM     19  N   UNK     1      -3.449  22.202 -27.654  1.00  0.00    -0.191 NA
ENDBRANCH   7  18
ENDBRANCH   1  14
BRANCH   3  20
ATOM     20  O   UNK     1      -1.828  16.669 -34.216  1.00  0.00    -0.386 OA
ATOM     21  H   UNK     1      -2.711  17.068 -34.329  1.00  0.00    +0.210 HD
ENDBRANCH   3  20
BRANCH   2  22
ATOM     22  O   UNK     1      -3.752  17.232 -32.475  1.00  0.00    -0.385 OA
ATOM     23  H   UNK     1      -3.634  16.650 -33.254  1.00  0.00    +0.210 HD
ENDBRANCH   2  22
BRANCH   4  24
ATOM     24  C   UNK     1       0.665  17.841 -31.660  1.00  0.00    +0.103 C 
BRANCH  24  25
ATOM     25  S   UNK     1       2.454  17.570 -31.941  1.00  0.00    -0.158 S 
BRANCH  25  26
ATOM     26  C   UNK     1       3.073  19.270 -32.191  1.00  0.00    +0.071 C 
BRANCH  26  27
ATOM     27  C   UNK     1       4.334  19.577 -31.385  1.00  0.00    +0.040 C 
BRANCH  27  28
ATOM     28  C   UNK     1       5.598  19.605 -32.260  1.00  0.00    +0.161 C 
BRANCH  28  29
ATOM     29  N   UNK     1       6.050  18.230 -32.552  1.00  0.00    -0.318 NA
ATOM     30  H   UNK     1       6.599  18.243 -33.417  1.00  0.00    +0.119 HD
ATOM     31  H   UNK     1       6.680  17.902 -31.822  1.00  0.00    +0.119 HD
ENDBRANCH  28  29
BRANCH  28  32
ATOM     32  C   UNK     1       5.359  20.358 -33.580  1.00  0.00    +0.322 C 
ATOM     33  O   UNK     1       5.329  19.866 -34.698  1.00  0.00    -0.249 OA
BRANCH  32  34
ATOM     34  O   UNK     1       5.274  21.696 -33.436  1.00  0.00    -0.480 OA
ATOM     35  H   UNK     1       4.314  21.844 -33.297  1.00  0.00    +0.295 HD
ENDBRANCH  32  34
ENDBRANCH  28  32
ENDBRANCH  27  28
ENDBRANCH  26  27
ENDBRANCH  25  26
ENDBRANCH  24  25
ENDBRANCH   4  24
TORSDOF 13
ENDMDL
MODEL 6
REMARK VINA RESULT:    -6.451      3.059      4.743
REMARK INTER + INTRA:         -11.937
REMARK INTER:                 -11.061
REMARK INTRA:                  -0.876
REMARK UNBOUND:                -1.525
REMARK  Name = 
REMARK  13 active torsions:
REMARK  status: ('A' for Active; 'I' for Inactive)
REMARK    1  A    between atoms: C_2  and  C_27
REMARK    2  A    between atoms: C_4  and  N_26
REMARK    3  A    between atoms: N_9  and  C_10
REMARK    4  A    between atoms: C_11  and  O_25
REMARK    5  A    between atoms: C_12  and  O_24
REMARK    6  A    between atoms: C_13  and  C_15
REMARK    7  A    between atoms: C_15  and  S_16
REMARK    8  A    between atoms: S_16  and  C_17
REMARK    9  A    between atoms: C_17  and  C_18
REMARK   10  A    between atoms: C_18  and  C_19
REMARK   11  A    between atoms: C_19  and  C_20
REMARK   12  A    between atoms: C_19  and  N_23
REMARK   13  A    between atoms: C_20  and  O_22
REMARK                            x       y       z     vdW  Elec       q    Type
REMARK                         _______ _______ _______ _____ _____    ______ ____
ROOT
ATOM      1  C   UNK     1      -2.419  19.094 -32.844  1.00  0.00    +0.252 C 
ATOM      2  C   UNK     1      -2.631  17.718 -32.204  1.00  0.00    +0.195 C 
ATOM      3  C   UNK     1      -1.604  16.889 -32.957  1.00  0.00    +0.177 C 
ATOM      4  C   UNK     1      -0.434  17.862 -33.107  1.00  0.00    +0.162 C 
ATOM      5  O   UNK     1      -1.012  19.184 -33.176  1.00  0.00    -0.347 OA
ENDROOT
BRANCH   1  14
ATOM      6  C   UNK     1      -2.716  20.199 -30.586  1.00  0.00    +0.110 A 
ATOM      7  C   UNK     1      -3.151  21.433 -30.148  1.00  0.00    +0.082 A 
ATOM      8  C   UNK     1      -3.482  22.214 -31.289  1.00  0.00    +0.076 A 
ATOM      9  C   UNK     1      -3.967  23.507 -31.537  1.00  0.00    +0.130 A 
ATOM     10  N   UNK     1      -4.157  23.891 -32.815  1.00  0.00    -0.220 NA
ATOM     11  C   UNK     1      -3.872  23.018 -33.799  1.00  0.00    +0.225 A 
ATOM     12  N   UNK     1      -3.400  21.767 -33.683  1.00  0.00    -0.217 NA
ATOM     13  C   UNK     1      -3.229  21.417 -32.399  1.00  0.00    +0.149 A 
ATOM     14  N   UNK     1      -2.770  20.198 -31.960  1.00  0.00    -0.302 N 
BRANCH   9  15
ATOM     15  N   UNK     1      -4.267  24.425 -30.560  1.00  0.00    -0.342 N 
ATOM     16  H   UNK     1      -5.182  24.525 -30.153  1.00  0.00    +0.144 HD
ATOM     17  H   UNK     1      -3.507  25.016 -30.254  1.00  0.00    +0.144 HD
ENDBRANCH   9  15
BRANCH   7  18
ATOM     18  C   UNK     1      -3.245  21.839 -28.783  1.00  0.00    +0.101 C 
ATOM     19  N   UNK     1      -3.335  22.206 -27.685  1.00  0.00    -0.191 NA
ENDBRANCH   7  18
ENDBRANCH   1  14
BRANCH   3  20
ATOM     20  O   UNK     1      -2.163  16.563 -34.243  1.00  0.00    -0.386 OA
ATOM     21  H   UNK     1      -1.431  16.537 -34.887  1.00  0.00    +0.210 HD
ENDBRANCH   3  20
BRANCH   2  22
ATOM     22  O   UNK     1      -3.938  17.179 -32.368  1.00  0.00    -0.385 OA
ATOM     23  H   UNK     1      -4.367  17.721 -33.063  1.00  0.00    +0.210 HD
ENDBRANCH   2  22
BRANCH   4  24
ATOM     24  C   UNK     1       0.534  17.760 -31.917  1.00  0.00    +0.103 C 
BRANCH  24  25
ATOM     25  S   UNK     1       1.214  16.095 -31.573  1.00  0.00    -0.158 S 
BRANCH  25  26
ATOM     26  C   UNK     1       2.975  16.451 -31.242  1.00  0.00    +0.071 C 
BRANCH  26  27
ATOM     27  C   UNK     1       3.909  15.946 -32.340  1.00  0.00    +0.040 C 
BRANCH  27  28
ATOM     28  C   UNK     1       4.720  14.716 -31.902  1.00  0.00    +0.161 C 
BRANCH  28  29
ATOM     29  N   UNK     1       4.811  14.660 -30.429  1.00  0.00    -0.318 NA
ATOM     30  H   UNK     1       4.363  13.798 -30.105  1.00  0.00    +0.119 HD
ATOM     31  H   UNK     1       5.785  14.600 -30.137  1.00  0.00    +0.119 HD
ENDBRANCH  28  29
BRANCH  28  32
ATOM     32  C   UNK     1       4.100  13.410 -32.426  1.00  0.00    +0.322 C 
ATOM     33  O   UNK     1       4.364  12.857 -33.484  1.00  0.00    -0.249 OA
BRANCH  32  34
ATOM     34  O   UNK     1       3.112  12.924 -31.647  1.00  0.00    -0.480 OA
ATOM     35  H   UNK     1       2.670  13.737 -31.318  1.00  0.00    +0.295 HD
ENDBRANCH  32  34
ENDBRANCH  28  32
ENDBRANCH  27  28
ENDBRANCH  26  27
ENDBRANCH  25  26
ENDBRANCH  24  25
ENDBRANCH   4  24
TORSDOF 13
ENDMDL
MODEL 7
REMARK VINA RESULT:    -6.330     10.459     12.930
REMARK INTER + INTRA:         -11.740
REMARK INTER:                 -10.785
REMARK INTRA:                  -0.956
REMARK UNBOUND:                -1.525
REMARK  Name = 
REMARK  13 active torsions:
REMARK  status: ('A' for Active; 'I' for Inactive)
REMARK    1  A    between atoms: C_2  and  C_27
REMARK    2  A    between atoms: C_4  and  N_26
REMARK    3  A    between atoms: N_9  and  C_10
REMARK    4  A    between atoms: C_11  and  O_25
REMARK    5  A    between atoms: C_12  and  O_24
REMARK    6  A    between atoms: C_13  and  C_15
REMARK    7  A    between atoms: C_15  and  S_16
REMARK    8  A    between atoms: S_16  and  C_17
REMARK    9  A    between atoms: C_17  and  C_18
REMARK   10  A    between atoms: C_18  and  C_19
REMARK   11  A    between atoms: C_19  and  C_20
REMARK   12  A    between atoms: C_19  and  N_23
REMARK   13  A    between atoms: C_20  and  O_22
REMARK                            x       y       z     vdW  Elec       q    Type
REMARK                         _______ _______ _______ _____ _____    ______ ____
ROOT
ATOM      1  C   UNK     1      -5.576   9.113 -30.835  1.00  0.00    +0.252 C 
ATOM      2  C   UNK     1      -5.099   7.877 -31.604  1.00  0.00    +0.195 C 
ATOM      3  C   UNK     1      -5.281   8.342 -33.039  1.00  0.00    +0.177 C 
ATOM      4  C   UNK     1      -4.876   9.816 -32.967  1.00  0.00    +0.162 C 
ATOM      5  O   UNK     1      -5.216  10.265 -31.636  1.00  0.00    -0.347 OA
ENDROOT
BRANCH   1  14
ATOM      6  C   UNK     1      -3.948  10.095 -29.164  1.00  0.00    +0.110 A 
ATOM      7  C   UNK     1      -3.661   9.878 -27.832  1.00  0.00    +0.082 A 
ATOM      8  C   UNK     1      -4.530   8.861 -27.353  1.00  0.00    +0.076 A 
ATOM      9  C   UNK     1      -4.752   8.194 -26.138  1.00  0.00    +0.130 A 
ATOM     10  N   UNK     1      -5.711   7.248 -26.087  1.00  0.00    -0.220 NA
ATOM     11  C   UNK     1      -6.416   6.985 -27.204  1.00  0.00    +0.225 A 
ATOM     12  N   UNK     1      -6.298   7.559 -28.411  1.00  0.00    -0.217 NA
ATOM     13  C   UNK     1      -5.331   8.489 -28.427  1.00  0.00    +0.149 A 
ATOM     14  N   UNK     1      -4.966   9.240 -29.518  1.00  0.00    -0.302 N 
BRANCH   9  15
ATOM     15  N   UNK     1      -4.055   8.437 -24.980  1.00  0.00    -0.342 N 
ATOM     16  H   UNK     1      -3.853   9.361 -24.636  1.00  0.00    +0.144 HD
ATOM     17  H   UNK     1      -3.743   7.624 -24.468  1.00  0.00    +0.144 HD
ENDBRANCH   9  15
BRANCH   7  18
ATOM     18  C   UNK     1      -2.663  10.568 -27.080  1.00  0.00    +0.101 C 
ATOM     19  N   UNK     1      -1.874  11.164 -26.471  1.00  0.00    -0.191 NA
ENDBRANCH   7  18
ENDBRANCH   1  14
BRANCH   3  20
ATOM     20  O   UNK     1      -6.677   8.214 -33.366  1.00  0.00    -0.386 OA
ATOM     21  H   UNK     1      -6.743   8.050 -34.325  1.00  0.00    +0.210 HD
ENDBRANCH   3  20
BRANCH   2  22
ATOM     22  O   UNK     1      -5.847   6.693 -31.355  1.00  0.00    -0.385 OA
ATOM     23  H   UNK     1      -5.219   6.057 -30.954  1.00  0.00    +0.210 HD
ENDBRANCH   2  22
BRANCH   4  24
ATOM     24  C   UNK     1      -3.371   9.996 -33.226  1.00  0.00    +0.103 C 
BRANCH  24  25
ATOM     25  S   UNK     1      -2.864  11.606 -33.936  1.00  0.00    -0.158 S 
BRANCH  25  26
ATOM     26  C   UNK     1      -3.893  11.712 -35.442  1.00  0.00    +0.071 C 
BRANCH  26  27
ATOM     27  C   UNK     1      -4.838  12.913 -35.443  1.00  0.00    +0.040 C 
BRANCH  27  28
ATOM     28  C   UNK     1      -5.307  13.290 -36.858  1.00  0.00    +0.161 C 
BRANCH  28  29
ATOM     29  N   UNK     1      -5.160  12.138 -37.771  1.00  0.00    -0.318 NA
ATOM     30  H   UNK     1      -5.108  12.488 -38.732  1.00  0.00    +0.119 HD
ATOM     31  H   UNK     1      -4.278  11.659 -37.596  1.00  0.00    +0.119 HD
ENDBRANCH  28  29
BRANCH  28  32
ATOM     32  C   UNK     1      -6.769  13.766 -36.865  1.00  0.00    +0.322 C 
ATOM     33  O   UNK     1      -7.458  13.973 -37.853  1.00  0.00    -0.249 OA
BRANCH  32  34
ATOM     34  O   UNK     1      -7.254  14.054 -35.639  1.00  0.00    -0.480 OA
ATOM     35  H   UNK     1      -7.273  13.178 -35.197  1.00  0.00    +0.295 HD
ENDBRANCH  32  34
ENDBRANCH  28  32
ENDBRANCH  27  28
ENDBRANCH  26  27
ENDBRANCH  25  26
ENDBRANCH  24  25
ENDBRANCH   4  24
TORSDOF 13
ENDMDL
MODEL 8
REMARK VINA RESULT:    -6.168      6.000      9.073
REMARK INTER + INTRA:         -11.480
REMARK INTER:                 -10.351
REMARK INTRA:                  -1.128
REMARK UNBOUND:                -1.525
REMARK  Name = 
REMARK  13 active torsions:
REMARK  status: ('A' for Active; 'I' for Inactive)
REMARK    1  A    between atoms: C_2  and  C_27
REMARK    2  A    between atoms: C_4  and  N_26
REMARK    3  A    between atoms: N_9  and  C_10
REMARK    4  A    between atoms: C_11  and  O_25
REMARK    5  A    between atoms: C_12  and  O_24
REMARK    6  A    between atoms: C_13  and  C_15
REMARK    7  A    between atoms: C_15  and  S_16
REMARK    8  A    between atoms: S_16  and  C_17
REMARK    9  A    between atoms: C_17  and  C_18
REMARK   10  A    between atoms: C_18  and  C_19
REMARK   11  A    between atoms: C_19  and  C_20
REMARK   12  A    between atoms: C_19  and  N_23
REMARK   13  A    between atoms: C_20  and  O_22
REMARK                            x       y       z     vdW  Elec       q    Type
REMARK                         _______ _______ _______ _____ _____    ______ ____
ROOT
ATOM      1  C   UNK     1      -3.581  13.840 -32.619  1.00  0.00    +0.252 C 
ATOM      2  C   UNK     1      -3.069  14.987 -33.496  1.00  0.00    +0.195 C 
ATOM      3  C   UNK     1      -2.509  15.928 -32.443  1.00  0.00    +0.177 C 
ATOM      4  C   UNK     1      -1.895  14.964 -31.426  1.00  0.00    +0.162 C 
ATOM      5  O   UNK     1      -2.687  13.757 -31.482  1.00  0.00    -0.347 OA
ENDROOT
BRANCH   1  14
ATOM      6  C   UNK     1      -2.937  12.238 -34.471  1.00  0.00    +0.110 A 
ATOM      7  C   UNK     1      -3.238  10.928 -34.781  1.00  0.00    +0.082 A 
ATOM      8  C   UNK     1      -4.107  10.425 -33.776  1.00  0.00    +0.076 A 
ATOM      9  C   UNK     1      -4.762   9.213 -33.503  1.00  0.00    +0.130 A 
ATOM     10  N   UNK     1      -5.532   9.131 -32.400  1.00  0.00    -0.220 NA
ATOM     11  C   UNK     1      -5.640  10.213 -31.607  1.00  0.00    +0.225 A 
ATOM     12  N   UNK     1      -5.060  11.413 -31.762  1.00  0.00    -0.217 NA
ATOM     13  C   UNK     1      -4.306  11.461 -32.872  1.00  0.00    +0.149 A 
ATOM     14  N   UNK     1      -3.596  12.555 -33.306  1.00  0.00    -0.302 N 
BRANCH   9  15
ATOM     15  N   UNK     1      -4.674   8.089 -34.287  1.00  0.00    -0.342 N 
ATOM     16  H   UNK     1      -4.297   7.213 -33.964  1.00  0.00    +0.144 HD
ATOM     17  H   UNK     1      -5.015   8.177 -35.234  1.00  0.00    +0.144 HD
ENDBRANCH   9  15
BRANCH   7  18
ATOM     18  C   UNK     1      -2.749  10.216 -35.918  1.00  0.00    +0.101 C 
ATOM     19  N   UNK     1      -2.316   9.629 -36.821  1.00  0.00    -0.191 NA
ENDBRANCH   7  18
ENDBRANCH   1  14
BRANCH   3  20
ATOM     20  O   UNK     1      -3.615  16.643 -31.862  1.00  0.00    -0.386 OA
ATOM     21  H   UNK     1      -3.973  16.098 -31.137  1.00  0.00    +0.210 HD
ENDBRANCH   3  20
BRANCH   2  22
ATOM     22  O   UNK     1      -4.068  15.634 -34.276  1.00  0.00    -0.385 OA
ATOM     23  H   UNK     1      -3.591  16.081 -35.005  1.00  0.00    +0.210 HD
ENDBRANCH   2  22
BRANCH   4  24
ATOM     24  C   UNK     1      -0.426  14.658 -31.760  1.00  0.00    +0.103 C 
BRANCH  24  25
ATOM     25  S   UNK     1       0.822  15.742 -30.970  1.00  0.00    -0.158 S 
BRANCH  25  26
ATOM     26  C   UNK     1       1.026  17.071 -32.207  1.00  0.00    +0.071 C 
BRANCH  26  27
ATOM     27  C   UNK     1       0.428  18.405 -31.763  1.00  0.00    +0.040 C 
BRANCH  27  28
ATOM     28  C   UNK     1      -0.387  19.082 -32.876  1.00  0.00    +0.161 C 
BRANCH  28  29
ATOM     29  N   UNK     1      -0.640  18.132 -33.978  1.00  0.00    -0.318 NA
ATOM     30  H   UNK     1      -0.926  18.661 -34.807  1.00  0.00    +0.119 HD
ATOM     31  H   UNK     1       0.220  17.649 -34.232  1.00  0.00    +0.119 HD
ENDBRANCH  28  29
BRANCH  28  32
ATOM     32  C   UNK     1      -1.727  19.624 -32.350  1.00  0.00    +0.322 C 
ATOM     33  O   UNK     1      -1.914  20.168 -31.271  1.00  0.00    -0.249 OA
BRANCH  32  34
ATOM     34  O   UNK     1      -2.775  19.363 -33.158  1.00  0.00    -0.480 OA
ATOM     35  H   UNK     1      -3.506  19.195 -32.525  1.00  0.00    +0.295 HD
ENDBRANCH  32  34
ENDBRANCH  28  32
ENDBRANCH  27  28
ENDBRANCH  26  27
ENDBRANCH  25  26
ENDBRANCH  24  25
ENDBRANCH   4  24
TORSDOF 13
ENDMDL
MODEL 9
REMARK VINA RESULT:    -5.931      9.407     12.297
REMARK INTER + INTRA:         -11.097
REMARK INTER:                  -9.512
REMARK INTRA:                  -1.585
REMARK UNBOUND:                -1.525
REMARK  Name = 
REMARK  13 active torsions:
REMARK  status: ('A' for Active; 'I' for Inactive)
REMARK    1  A    between atoms: C_2  and  C_27
REMARK    2  A    between atoms: C_4  and  N_26
REMARK    3  A    between atoms: N_9  and  C_10
REMARK    4  A    between atoms: C_11  and  O_25
REMARK    5  A    between atoms: C_12  and  O_24
REMARK    6  A    between atoms: C_13  and  C_15
REMARK    7  A    between atoms: C_15  and  S_16
REMARK    8  A    between atoms: S_16  and  C_17
REMARK    9  A    between atoms: C_17  and  C_18
REMARK   10  A    between atoms: C_18  and  C_19
REMARK   11  A    between atoms: C_19  and  C_20
REMARK   12  A    between atoms: C_19  and  N_23
REMARK   13  A    between atoms: C_20  and  O_22
REMARK                            x       y       z     vdW  Elec       q    Type
REMARK                         _______ _______ _______ _____ _____    ______ ____
ROOT
ATOM      1  C   UNK     1      -5.584   9.047 -30.795  1.00  0.00    +0.252 C 
ATOM      2  C   UNK     1      -5.116   7.780 -31.518  1.00  0.00    +0.195 C 
ATOM      3  C   UNK     1      -5.283   8.198 -32.970  1.00  0.00    +0.177 C 
ATOM      4  C   UNK     1      -4.861   9.668 -32.944  1.00  0.00    +0.162 C 
ATOM      5  O   UNK     1      -5.205  10.166 -31.633  1.00  0.00    -0.347 OA
ENDROOT
BRANCH   1  14
ATOM      6  C   UNK     1      -3.962  10.073 -29.145  1.00  0.00    +0.110 A 
ATOM      7  C   UNK     1      -3.685   9.897 -27.805  1.00  0.00    +0.082 A 
ATOM      8  C   UNK     1      -4.561   8.898 -27.301  1.00  0.00    +0.076 A 
ATOM      9  C   UNK     1      -4.794   8.269 -26.067  1.00  0.00    +0.130 A 
ATOM     10  N   UNK     1      -5.758   7.330 -25.993  1.00  0.00    -0.220 NA
ATOM     11  C   UNK     1      -6.457   7.035 -27.106  1.00  0.00    +0.225 A 
ATOM     12  N   UNK     1      -6.328   7.571 -28.329  1.00  0.00    -0.217 NA
ATOM     13  C   UNK     1      -5.357   8.497 -28.367  1.00  0.00    +0.149 A 
ATOM     14  N   UNK     1      -4.982   9.212 -29.479  1.00  0.00    -0.302 N 
BRANCH   9  15
ATOM     15  N   UNK     1      -4.104   8.545 -24.913  1.00  0.00    -0.342 N 
ATOM     16  H   UNK     1      -3.406   9.267 -24.840  1.00  0.00    +0.144 HD
ATOM     17  H   UNK     1      -4.331   7.976 -24.110  1.00  0.00    +0.144 HD
ENDBRANCH   9  15
BRANCH   7  18
ATOM     18  C   UNK     1      -2.689  10.605 -27.068  1.00  0.00    +0.101 C 
ATOM     19  N   UNK     1      -1.877  11.150 -26.441  1.00  0.00    -0.191 NA
ENDBRANCH   7  18
ENDBRANCH   1  14
BRANCH   3  20
ATOM     20  O   UNK     1      -6.678   8.075 -33.303  1.00  0.00    -0.386 OA
ATOM     21  H   UNK     1      -7.186   8.585 -32.646  1.00  0.00    +0.210 HD
ENDBRANCH   3  20
BRANCH   2  22
ATOM     22  O   UNK     1      -5.880   6.614 -31.235  1.00  0.00    -0.385 OA
ATOM     23  H   UNK     1      -6.768   6.775 -31.616  1.00  0.00    +0.210 HD
ENDBRANCH   2  22
BRANCH   4  24
ATOM     24  C   UNK     1      -3.352   9.823 -33.199  1.00  0.00    +0.103 C 
BRANCH  24  25
ATOM     25  S   UNK     1      -2.866  10.270 -34.907  1.00  0.00    -0.158 S 
BRANCH  25  26
ATOM     26  C   UNK     1      -2.754  12.091 -34.818  1.00  0.00    +0.071 C 
BRANCH  26  27
ATOM     27  C   UNK     1      -4.081  12.760 -34.463  1.00  0.00    +0.040 C 
BRANCH  27  28
ATOM     28  C   UNK     1      -3.918  13.864 -33.407  1.00  0.00    +0.161 C 
BRANCH  28  29
ATOM     29  N   UNK     1      -5.031  14.831 -33.499  1.00  0.00    -0.318 NA
ATOM     30  H   UNK     1      -4.745  15.601 -34.111  1.00  0.00    +0.119 HD
ATOM     31  H   UNK     1      -5.838  14.400 -33.944  1.00  0.00    +0.119 HD
ENDBRANCH  28  29
BRANCH  28  32
ATOM     32  C   UNK     1      -3.860  13.285 -31.983  1.00  0.00    +0.322 C 
ATOM     33  O   UNK     1      -2.864  12.864 -31.413  1.00  0.00    -0.249 OA
BRANCH  32  34
ATOM     34  O   UNK     1      -5.068  13.168 -31.393  1.00  0.00    -0.480 OA
ATOM     35  H   UNK     1      -5.549  13.960 -31.716  1.00  0.00    +0.295 HD
ENDBRANCH  32  34
ENDBRANCH  28  32
ENDBRANCH  27  28
ENDBRANCH  26  27
ENDBRANCH  25  26
ENDBRANCH  24  25
ENDBRANCH   4  24
TORSDOF 13
ENDMDL
