MODEL 1
REMARK VINA RESULT:    -8.910      0.000      0.000
REMARK INTER + INTRA:         -15.790
REMARK INTER:                 -14.899
REMARK INTRA:                  -0.891
REMARK UNBOUND:                -0.891
REMARK  Name = 
REMARK  15 active torsions:
REMARK  status: ('A' for Active; 'I' for Inactive)
REMARK    1  A    between atoms: C_1  and  C_2
REMARK    2  A    between atoms: C_2  and  N_3
REMARK    3  A    between atoms: N_3  and  C_4
REMARK    4  A    between atoms: N_3  and  S_30
REMARK    5  A    between atoms: C_4  and  C_5
REMARK    6  A    between atoms: C_6  and  O_29
REMARK    7  A    between atoms: C_7  and  O_28
REMARK    8  A    between atoms: C_8  and  N_10
REMARK    9  A    between atoms: C_12  and  C_20
REMARK   10  A    between atoms: C_18  and  N_19
REMARK   11  A    between atoms: C_21  and  C_22
REMARK   12  A    between atoms: S_30  and  C_33
REMARK   13  A    between atoms: C_36  and  O_41
REMARK   14  A    between atoms: C_37  and  C_39
REMARK   15  A    between atoms: O_41  and  C_42
REMARK                            x       y       z     vdW  Elec       q    Type
REMARK                         _______ _______ _______ _____ _____    ______ ____
ROOT
ATOM      1  C   UNL     1      -3.637  11.482 -32.879  1.00  0.00    +0.168 C 
ATOM      2  C   UNL     1      -2.690  11.690 -34.062  1.00  0.00    +0.177 C 
ATOM      3  C   UNL     1      -3.279  12.916 -34.742  1.00  0.00    +0.195 C 
ATOM      4  C   UNL     1      -3.934  13.684 -33.594  1.00  0.00    +0.252 C 
ATOM      5  O   UNL     1      -4.075  12.796 -32.467  1.00  0.00    -0.347 OA
ENDROOT
BRANCH   4   6
ATOM      6  N   UNL     1      -3.215  14.877 -33.167  1.00  0.00    -0.302 N 
ATOM      7  C   UNL     1      -3.756  16.144 -33.172  1.00  0.00    +0.108 A 
ATOM      8  C   UNL     1      -2.801  17.016 -32.699  1.00  0.00    +0.055 A 
ATOM      9  C   UNL     1      -1.631  16.265 -32.396  1.00  0.00    +0.074 A 
ATOM     10  C   UNL     1      -1.921  14.938 -32.701  1.00  0.00    +0.149 A 
ATOM     11  N   UNL     1      -1.084  13.894 -32.568  1.00  0.00    -0.218 NA
ATOM     12  C   UNL     1       0.112  14.273 -32.090  1.00  0.00    +0.225 A 
ATOM     13  N   UNL     1       0.521  15.508 -31.752  1.00  0.00    -0.220 NA
ATOM     14  C   UNL     1      -0.345  16.531 -31.899  1.00  0.00    +0.130 A 
BRANCH  14  15
ATOM     15  N   UNL     1       0.107  17.780 -31.549  1.00  0.00    -0.342 N 
ATOM     16  H   UNL     1       0.463  18.428 -32.232  1.00  0.00    +0.144 HD
ATOM     17  H   UNL     1       0.078  18.019 -30.569  1.00  0.00    +0.144 HD
ENDBRANCH  14  15
BRANCH   8  18
ATOM     18  C   UNL     1      -3.007  18.419 -32.560  1.00  0.00    -0.059 C 
ATOM     19  C   UNL     1      -3.181  19.602 -32.448  1.00  0.00    -0.059 C 
BRANCH  19  20
ATOM     20  C   UNL     1      -3.387  21.010 -32.323  1.00  0.00    +0.043 A 
ATOM     21  C   UNL     1      -3.730  21.783 -33.428  1.00  0.00    +0.020 A 
ATOM     22  C   UNL     1      -3.927  23.154 -33.269  1.00  0.00    +0.021 A 
ATOM     23  C   UNL     1      -3.772  23.699 -32.003  1.00  0.00    +0.111 A 
ATOM     24  N   UNL     1      -3.440  22.977 -30.910  1.00  0.00    -0.262 NA
ATOM     25  C   UNL     1      -3.253  21.648 -31.096  1.00  0.00    +0.127 A 
ENDBRANCH  19  20
ENDBRANCH   8  18
ENDBRANCH   4   6
BRANCH   3  26
ATOM     26  O   UNL     1      -4.278  12.497 -35.692  1.00  0.00    -0.385 OA
ATOM     27  H   UNL     1      -3.770  12.039 -36.398  1.00  0.00    +0.210 HD
ENDBRANCH   3  26
BRANCH   2  28
ATOM     28  O   UNL     1      -2.665  10.598 -34.981  1.00  0.00    -0.386 OA
ATOM     29  H   UNL     1      -3.483  10.672 -35.522  1.00  0.00    +0.210 HD
ENDBRANCH   2  28
BRANCH   1  30
ATOM     30  C   UNL     1      -2.992  10.790 -31.669  1.00  0.00    +0.143 C 
BRANCH  30  31
ATOM     31  N   UNL     1      -3.859  10.884 -30.459  1.00  0.00    -0.174 NA
BRANCH  31  32
ATOM     32  S   UNL     1      -4.576   9.450 -29.904  1.00  0.00    +0.061 S 
ATOM     33  O   UNL     1      -6.013   9.590 -29.969  1.00  0.00    -0.153 OA
ATOM     34  O   UNL     1      -3.903   8.355 -30.576  1.00  0.00    -0.153 OA
BRANCH  32  35
ATOM     35  C   UNL     1      -4.124   9.394 -28.184  1.00  0.00    +0.107 A 
ATOM     36  C   UNL     1      -3.048   8.608 -27.770  1.00  0.00    +0.032 A 
ATOM     37  C   UNL     1      -2.713   8.545 -26.413  1.00  0.00    +0.049 A 
ATOM     38  C   UNL     1      -3.460   9.252 -25.463  1.00  0.00    +0.138 A 
ATOM     39  C   UNL     1      -4.560  10.021 -25.887  1.00  0.00    +0.095 A 
ATOM     40  C   UNL     1      -4.897  10.084 -27.247  1.00  0.00    +0.051 A 
BRANCH  39  41
ATOM     41  C   UNL     1      -5.359  10.757 -24.947  1.00  0.00    +0.103 C 
ATOM     42  N   UNL     1      -5.971  11.391 -24.193  1.00  0.00    -0.191 NA
ENDBRANCH  39  41
BRANCH  38  43
ATOM     43  O   UNL     1      -3.203   9.254 -24.117  1.00  0.00    -0.494 OA
ATOM     44  C   UNL     1      -3.496   8.073 -23.382  1.00  0.00    +0.277 C 
ENDBRANCH  38  43
ENDBRANCH  32  35
ENDBRANCH  31  32
BRANCH  31  46
ATOM     45  C   UNL     1      -1.876  12.026 -29.536  1.00  0.00    +0.022 C 
ATOM     46  C   UNL     1      -3.383  11.850 -29.436  1.00  0.00    +0.106 C 
ENDBRANCH  31  46
ENDBRANCH  30  31
ENDBRANCH   1  30
TORSDOF 13
ENDMDL
MODEL 2
REMARK VINA RESULT:    -8.723      3.058      4.191
REMARK INTER + INTRA:         -15.478
REMARK INTER:                 -13.876
REMARK INTRA:                  -1.602
REMARK UNBOUND:                -0.891
REMARK  Name = 
REMARK  15 active torsions:
REMARK  status: ('A' for Active; 'I' for Inactive)
REMARK    1  A    between atoms: C_1  and  C_2
REMARK    2  A    between atoms: C_2  and  N_3
REMARK    3  A    between atoms: N_3  and  C_4
REMARK    4  A    between atoms: N_3  and  S_30
REMARK    5  A    between atoms: C_4  and  C_5
REMARK    6  A    between atoms: C_6  and  O_29
REMARK    7  A    between atoms: C_7  and  O_28
REMARK    8  A    between atoms: C_8  and  N_10
REMARK    9  A    between atoms: C_12  and  C_20
REMARK   10  A    between atoms: C_18  and  N_19
REMARK   11  A    between atoms: C_21  and  C_22
REMARK   12  A    between atoms: S_30  and  C_33
REMARK   13  A    between atoms: C_36  and  O_41
REMARK   14  A    between atoms: C_37  and  C_39
REMARK   15  A    between atoms: O_41  and  C_42
REMARK                            x       y       z     vdW  Elec       q    Type
REMARK                         _______ _______ _______ _____ _____    ______ ____
ROOT
ATOM      1  C   UNL     1      -2.727  12.111 -33.565  1.00  0.00    +0.168 C 
ATOM      2  C   UNL     1      -4.014  12.920 -33.726  1.00  0.00    +0.177 C 
ATOM      3  C   UNL     1      -4.121  13.636 -32.389  1.00  0.00    +0.195 C 
ATOM      4  C   UNL     1      -2.666  13.793 -31.948  1.00  0.00    +0.252 C 
ATOM      5  O   UNL     1      -1.849  12.896 -32.728  1.00  0.00    -0.347 OA
ENDROOT
BRANCH   4   6
ATOM      6  N   UNL     1      -2.131  15.143 -32.068  1.00  0.00    -0.302 N 
ATOM      7  C   UNL     1      -2.912  16.274 -32.161  1.00  0.00    +0.108 A 
ATOM      8  C   UNL     1      -2.074  17.363 -32.251  1.00  0.00    +0.055 A 
ATOM      9  C   UNL     1      -0.732  16.890 -32.219  1.00  0.00    +0.074 A 
ATOM     10  C   UNL     1      -0.803  15.504 -32.106  1.00  0.00    +0.149 A 
ATOM     11  N   UNL     1       0.242  14.659 -32.050  1.00  0.00    -0.218 NA
ATOM     12  C   UNL     1       1.413  15.314 -32.112  1.00  0.00    +0.225 A 
ATOM     13  N   UNL     1       1.624  16.637 -32.215  1.00  0.00    -0.220 NA
ATOM     14  C   UNL     1       0.552  17.453 -32.271  1.00  0.00    +0.130 A 
BRANCH  14  15
ATOM     15  N   UNL     1       0.805  18.798 -32.381  1.00  0.00    -0.342 N 
ATOM     16  H   UNL     1       0.560  19.447 -31.650  1.00  0.00    +0.144 HD
ATOM     17  H   UNL     1       1.240  19.116 -33.234  1.00  0.00    +0.144 HD
ENDBRANCH  14  15
BRANCH   8  18
ATOM     18  C   UNL     1      -2.530  18.709 -32.359  1.00  0.00    -0.059 C 
ATOM     19  C   UNL     1      -2.915  19.843 -32.444  1.00  0.00    -0.059 C 
BRANCH  19  20
ATOM     20  C   UNL     1      -3.373  21.192 -32.538  1.00  0.00    +0.043 A 
ATOM     21  C   UNL     1      -3.438  22.005 -31.409  1.00  0.00    +0.020 A 
ATOM     22  C   UNL     1      -3.887  23.319 -31.538  1.00  0.00    +0.021 A 
ATOM     23  C   UNL     1      -4.253  23.769 -32.797  1.00  0.00    +0.111 A 
ATOM     24  N   UNL     1      -4.202  23.007 -33.912  1.00  0.00    -0.262 NA
ATOM     25  C   UNL     1      -3.764  21.734 -33.755  1.00  0.00    +0.127 A 
ENDBRANCH  19  20
ENDBRANCH   8  18
ENDBRANCH   4   6
BRANCH   3  26
ATOM     26  O   UNL     1      -4.834  12.799 -31.458  1.00  0.00    -0.385 OA
ATOM     27  H   UNL     1      -5.783  12.988 -31.633  1.00  0.00    +0.210 HD
ENDBRANCH   3  26
BRANCH   2  28
ATOM     28  O   UNL     1      -5.177  12.120 -33.935  1.00  0.00    -0.386 OA
ATOM     29  H   UNL     1      -4.909  11.392 -34.540  1.00  0.00    +0.210 HD
ENDBRANCH   2  28
BRANCH   1  30
ATOM     30  C   UNL     1      -1.996  11.819 -34.884  1.00  0.00    +0.143 C 
BRANCH  30  31
ATOM     31  N   UNL     1      -1.716  10.363 -35.042  1.00  0.00    -0.174 NA
BRANCH  31  32
ATOM     32  S   UNL     1      -3.011   9.368 -35.503  1.00  0.00    +0.061 S 
ATOM     33  O   UNL     1      -4.154  10.199 -35.805  1.00  0.00    -0.153 OA
ATOM     34  O   UNL     1      -2.495   8.428 -36.479  1.00  0.00    -0.153 OA
BRANCH  32  35
ATOM     35  C   UNL     1      -3.390   8.461 -34.020  1.00  0.00    +0.107 A 
ATOM     36  C   UNL     1      -2.980   7.133 -33.888  1.00  0.00    +0.032 A 
ATOM     37  C   UNL     1      -3.304   6.415 -32.733  1.00  0.00    +0.049 A 
ATOM     38  C   UNL     1      -4.052   7.012 -31.712  1.00  0.00    +0.138 A 
ATOM     39  C   UNL     1      -4.485   8.343 -31.864  1.00  0.00    +0.095 A 
ATOM     40  C   UNL     1      -4.161   9.063 -33.023  1.00  0.00    +0.051 A 
BRANCH  39  41
ATOM     41  C   UNL     1      -5.261   8.993 -30.845  1.00  0.00    +0.103 C 
ATOM     42  N   UNL     1      -5.931   9.509 -30.051  1.00  0.00    -0.191 NA
ENDBRANCH  39  41
BRANCH  38  43
ATOM     43  O   UNL     1      -4.411   6.389 -30.545  1.00  0.00    -0.494 OA
ATOM     44  C   UNL     1      -3.406   6.198 -29.557  1.00  0.00    +0.277 C 
ENDBRANCH  38  43
ENDBRANCH  32  35
ENDBRANCH  31  32
BRANCH  31  46
ATOM     45  C   UNL     1       0.446   9.247 -34.625  1.00  0.00    +0.022 C 
ATOM     46  C   UNL     1      -0.380  10.054 -35.615  1.00  0.00    +0.106 C 
ENDBRANCH  31  46
ENDBRANCH  30  31
ENDBRANCH   1  30
TORSDOF 13
ENDMDL
MODEL 3
REMARK VINA RESULT:    -8.609      1.339      1.681
REMARK INTER + INTRA:         -15.288
REMARK INTER:                 -14.527
REMARK INTRA:                  -0.761
REMARK UNBOUND:                -0.891
REMARK  Name = 
REMARK  15 active torsions:
REMARK  status: ('A' for Active; 'I' for Inactive)
REMARK    1  A    between atoms: C_1  and  C_2
REMARK    2  A    between atoms: C_2  and  N_3
REMARK    3  A    between atoms: N_3  and  C_4
REMARK    4  A    between atoms: N_3  and  S_30
REMARK    5  A    between atoms: C_4  and  C_5
REMARK    6  A    between atoms: C_6  and  O_29
REMARK    7  A    between atoms: C_7  and  O_28
REMARK    8  A    between atoms: C_8  and  N_10
REMARK    9  A    between atoms: C_12  and  C_20
REMARK   10  A    between atoms: C_18  and  N_19
REMARK   11  A    between atoms: C_21  and  C_22
REMARK   12  A    between atoms: S_30  and  C_33
REMARK   13  A    between atoms: C_36  and  O_41
REMARK   14  A    between atoms: C_37  and  C_39
REMARK   15  A    between atoms: O_41  and  C_42
REMARK                            x       y       z     vdW  Elec       q    Type
REMARK                         _______ _______ _______ _____ _____    ______ ____
ROOT
ATOM      1  C   UNL     1      -3.633  11.427 -33.090  1.00  0.00    +0.168 C 
ATOM      2  C   UNL     1      -2.636  11.644 -34.228  1.00  0.00    +0.177 C 
ATOM      3  C   UNL     1      -3.174  12.895 -34.903  1.00  0.00    +0.195 C 
ATOM      4  C   UNL     1      -3.861  13.649 -33.764  1.00  0.00    +0.252 C 
ATOM      5  O   UNL     1      -4.065  12.738 -32.665  1.00  0.00    -0.347 OA
ENDROOT
BRANCH   4   6
ATOM      6  N   UNL     1      -3.140  14.819 -33.280  1.00  0.00    -0.302 N 
ATOM      7  C   UNL     1      -3.666  16.091 -33.256  1.00  0.00    +0.108 A 
ATOM      8  C   UNL     1      -2.713  16.935 -32.731  1.00  0.00    +0.055 A 
ATOM      9  C   UNL     1      -1.559  16.161 -32.425  1.00  0.00    +0.074 A 
ATOM     10  C   UNL     1      -1.857  14.848 -32.780  1.00  0.00    +0.149 A 
ATOM     11  N   UNL     1      -1.036  13.789 -32.662  1.00  0.00    -0.218 NA
ATOM     12  C   UNL     1       0.152  14.138 -32.142  1.00  0.00    +0.225 A 
ATOM     13  N   UNL     1       0.567  15.356 -31.754  1.00  0.00    -0.220 NA
ATOM     14  C   UNL     1      -0.283  16.394 -31.888  1.00  0.00    +0.130 A 
BRANCH  14  15
ATOM     15  N   UNL     1       0.175  17.624 -31.485  1.00  0.00    -0.342 N 
ATOM     16  H   UNL     1       1.129  17.769 -31.196  1.00  0.00    +0.144 HD
ATOM     17  H   UNL     1      -0.491  18.383 -31.481  1.00  0.00    +0.144 HD
ENDBRANCH  14  15
BRANCH   8  18
ATOM     18  C   UNL     1      -2.906  18.336 -32.551  1.00  0.00    -0.059 C 
ATOM     19  C   UNL     1      -3.072  19.516 -32.403  1.00  0.00    -0.059 C 
BRANCH  19  20
ATOM     20  C   UNL     1      -3.273  20.919 -32.234  1.00  0.00    +0.043 A 
ATOM     21  C   UNL     1      -3.667  21.719 -33.303  1.00  0.00    +0.020 A 
ATOM     22  C   UNL     1      -3.857  23.086 -33.101  1.00  0.00    +0.021 A 
ATOM     23  C   UNL     1      -3.646  23.600 -31.831  1.00  0.00    +0.111 A 
ATOM     24  N   UNL     1      -3.264  22.852 -30.772  1.00  0.00    -0.262 NA
ATOM     25  C   UNL     1      -3.084  21.528 -30.999  1.00  0.00    +0.127 A 
ENDBRANCH  19  20
ENDBRANCH   8  18
ENDBRANCH   4   6
BRANCH   3  26
ATOM     26  O   UNL     1      -4.141  12.517 -35.901  1.00  0.00    -0.385 OA
ATOM     27  H   UNL     1      -3.940  13.094 -36.671  1.00  0.00    +0.210 HD
ENDBRANCH   3  26
BRANCH   2  28
ATOM     28  O   UNL     1      -2.593  10.573 -35.171  1.00  0.00    -0.386 OA
ATOM     29  H   UNL     1      -3.437  10.078 -35.069  1.00  0.00    +0.210 HD
ENDBRANCH   2  28
BRANCH   1  30
ATOM     30  C   UNL     1      -3.050  10.695 -31.872  1.00  0.00    +0.143 C 
BRANCH  30  31
ATOM     31  N   UNL     1      -3.645   9.336 -31.715  1.00  0.00    -0.174 NA
BRANCH  31  32
ATOM     32  S   UNL     1      -5.253   9.249 -31.182  1.00  0.00    +0.061 S 
ATOM     33  O   UNL     1      -5.831  10.573 -31.219  1.00  0.00    -0.153 OA
ATOM     34  O   UNL     1      -5.873   8.146 -31.890  1.00  0.00    -0.153 OA
BRANCH  32  35
ATOM     35  C   UNL     1      -5.103   8.782 -29.471  1.00  0.00    +0.107 A 
ATOM     36  C   UNL     1      -5.233   7.444 -29.098  1.00  0.00    +0.032 A 
ATOM     37  C   UNL     1      -5.142   7.085 -27.749  1.00  0.00    +0.049 A 
ATOM     38  C   UNL     1      -4.938   8.061 -26.766  1.00  0.00    +0.138 A 
ATOM     39  C   UNL     1      -4.835   9.411 -27.149  1.00  0.00    +0.095 A 
ATOM     40  C   UNL     1      -4.927   9.772 -28.501  1.00  0.00    +0.051 A 
BRANCH  39  41
ATOM     41  C   UNL     1      -4.632  10.447 -26.174  1.00  0.00    +0.103 C 
ATOM     42  N   UNL     1      -4.473  11.247 -25.349  1.00  0.00    -0.191 NA
ENDBRANCH  39  41
BRANCH  38  43
ATOM     43  O   UNL     1      -4.830   7.802 -25.425  1.00  0.00    -0.494 OA
ATOM     44  C   UNL     1      -5.326   6.558 -24.946  1.00  0.00    +0.277 C 
ENDBRANCH  38  43
ENDBRANCH  32  35
ENDBRANCH  31  32
BRANCH  31  46
ATOM     45  C   UNL     1      -2.491   7.186 -32.086  1.00  0.00    +0.022 C 
ATOM     46  C   UNL     1      -3.211   8.354 -32.742  1.00  0.00    +0.106 C 
ENDBRANCH  31  46
ENDBRANCH  30  31
ENDBRANCH   1  30
TORSDOF 13
ENDMDL
MODEL 4
REMARK VINA RESULT:    -8.523      3.070      4.145
REMARK INTER + INTRA:         -15.144
REMARK INTER:                 -13.743
REMARK INTRA:                  -1.401
REMARK UNBOUND:                -0.891
REMARK  Name = 
REMARK  15 active torsions:
REMARK  status: ('A' for Active; 'I' for Inactive)
REMARK    1  A    between atoms: C_1  and  C_2
REMARK    2  A    between atoms: C_2  and  N_3
REMARK    3  A    between atoms: N_3  and  C_4
REMARK    4  A    between atoms: N_3  and  S_30
REMARK    5  A    between atoms: C_4  and  C_5
REMARK    6  A    between atoms: C_6  and  O_29
REMARK    7  A    between atoms: C_7  and  O_28
REMARK    8  A    between atoms: C_8  and  N_10
REMARK    9  A    between atoms: C_12  and  C_20
REMARK   10  A    between atoms: C_18  and  N_19
REMARK   11  A    between atoms: C_21  and  C_22
REMARK   12  A    between atoms: S_30  and  C_33
REMARK   13  A    between atoms: C_36  and  O_41
REMARK   14  A    between atoms: C_37  and  C_39
REMARK   15  A    between atoms: O_41  and  C_42
REMARK                            x       y       z     vdW  Elec       q    Type
REMARK                         _______ _______ _______ _____ _____    ______ ____
ROOT
ATOM      1  C   UNL     1      -3.706  11.411 -35.531  1.00  0.00    +0.168 C 
ATOM      2  C   UNL     1      -4.162  12.573 -36.415  1.00  0.00    +0.177 C 
ATOM      3  C   UNL     1      -4.996  13.407 -35.456  1.00  0.00    +0.195 C 
ATOM      4  C   UNL     1      -4.363  13.127 -34.093  1.00  0.00    +0.252 C 
ATOM      5  O   UNL     1      -3.543  11.946 -34.199  1.00  0.00    -0.347 OA
ENDROOT
BRANCH   4   6
ATOM      6  N   UNL     1      -3.557  14.215 -33.557  1.00  0.00    -0.302 N 
ATOM      7  C   UNL     1      -3.993  15.518 -33.456  1.00  0.00    +0.108 A 
ATOM      8  C   UNL     1      -2.977  16.264 -32.899  1.00  0.00    +0.055 A 
ATOM      9  C   UNL     1      -1.877  15.396 -32.654  1.00  0.00    +0.074 A 
ATOM     10  C   UNL     1      -2.270  14.128 -33.076  1.00  0.00    +0.149 A 
ATOM     11  N   UNL     1      -1.522  13.011 -33.029  1.00  0.00    -0.218 NA
ATOM     12  C   UNL     1      -0.307  13.248 -32.509  1.00  0.00    +0.225 A 
ATOM     13  N   UNL     1       0.196  14.411 -32.062  1.00  0.00    -0.220 NA
ATOM     14  C   UNL     1      -0.582  15.511 -32.125  1.00  0.00    +0.130 A 
BRANCH  14  15
ATOM     15  N   UNL     1      -0.035  16.683 -31.663  1.00  0.00    -0.342 N 
ATOM     16  H   UNL     1      -0.153  17.555 -32.152  1.00  0.00    +0.144 HD
ATOM     17  H   UNL     1       0.504  16.632 -30.811  1.00  0.00    +0.144 HD
ENDBRANCH  14  15
BRANCH   8  18
ATOM     18  C   UNL     1      -3.071  17.662 -32.640  1.00  0.00    -0.059 C 
ATOM     19  C   UNL     1      -3.151  18.839 -32.416  1.00  0.00    -0.059 C 
BRANCH  19  20
ATOM     20  C   UNL     1      -3.249  20.237 -32.143  1.00  0.00    +0.043 A 
ATOM     21  C   UNL     1      -3.640  21.133 -33.135  1.00  0.00    +0.020 A 
ATOM     22  C   UNL     1      -3.728  22.492 -32.833  1.00  0.00    +0.021 A 
ATOM     23  C   UNL     1      -3.421  22.901 -31.545  1.00  0.00    +0.111 A 
ATOM     24  N   UNL     1      -3.039  22.058 -30.560  1.00  0.00    -0.262 NA
ATOM     25  C   UNL     1      -2.959  20.745 -30.883  1.00  0.00    +0.127 A 
ENDBRANCH  19  20
ENDBRANCH   8  18
ENDBRANCH   4   6
BRANCH   3  26
ATOM     26  O   UNL     1      -6.357  12.934 -35.478  1.00  0.00    -0.385 OA
ATOM     27  H   UNL     1      -6.883  13.711 -35.771  1.00  0.00    +0.210 HD
ENDBRANCH   3  26
BRANCH   2  28
ATOM     28  O   UNL     1      -4.964  12.173 -37.525  1.00  0.00    -0.386 OA
ATOM     29  H   UNL     1      -5.236  11.244 -37.353  1.00  0.00    +0.210 HD
ENDBRANCH   2  28
BRANCH   1  30
ATOM     30  C   UNL     1      -2.374  10.777 -35.960  1.00  0.00    +0.143 C 
BRANCH  30  31
ATOM     31  N   UNL     1      -1.917   9.751 -34.979  1.00  0.00    -0.174 NA
BRANCH  31  32
ATOM     32  S   UNL     1      -2.420   8.151 -35.238  1.00  0.00    +0.061 S 
ATOM     33  O   UNL     1      -3.310   8.119 -36.376  1.00  0.00    -0.153 OA
ATOM     34  O   UNL     1      -1.231   7.323 -35.199  1.00  0.00    -0.153 OA
BRANCH  32  35
ATOM     35  C   UNL     1      -3.391   7.778 -33.793  1.00  0.00    +0.107 A 
ATOM     36  C   UNL     1      -3.263   6.538 -33.167  1.00  0.00    +0.032 A 
ATOM     37  C   UNL     1      -4.048   6.238 -32.048  1.00  0.00    +0.049 A 
ATOM     38  C   UNL     1      -4.974   7.169 -31.560  1.00  0.00    +0.138 A 
ATOM     39  C   UNL     1      -5.114   8.407 -32.214  1.00  0.00    +0.095 A 
ATOM     40  C   UNL     1      -4.329   8.707 -33.337  1.00  0.00    +0.051 A 
BRANCH  39  41
ATOM     41  C   UNL     1      -6.057   9.388 -31.753  1.00  0.00    +0.103 C 
ATOM     42  N   UNL     1      -6.783  10.197 -31.346  1.00  0.00    -0.191 NA
ENDBRANCH  39  41
BRANCH  38  43
ATOM     43  O   UNL     1      -5.779   6.965 -30.470  1.00  0.00    -0.494 OA
ATOM     44  C   UNL     1      -5.181   7.025 -29.181  1.00  0.00    +0.277 C 
ENDBRANCH  38  43
ENDBRANCH  32  35
ENDBRANCH  31  32
BRANCH  31  46
ATOM     45  C   UNL     1       0.292  10.724 -35.491  1.00  0.00    +0.022 C 
ATOM     46  C   UNL     1      -0.536   9.958 -34.471  1.00  0.00    +0.106 C 
ENDBRANCH  31  46
ENDBRANCH  30  31
ENDBRANCH   1  30
TORSDOF 13
ENDMDL
MODEL 5
REMARK VINA RESULT:    -8.284      4.413      7.865
REMARK INTER + INTRA:         -14.745
REMARK INTER:                 -13.282
REMARK INTRA:                  -1.463
REMARK UNBOUND:                -0.891
REMARK  Name = 
REMARK  15 active torsions:
REMARK  status: ('A' for Active; 'I' for Inactive)
REMARK    1  A    between atoms: C_1  and  C_2
REMARK    2  A    between atoms: C_2  and  N_3
REMARK    3  A    between atoms: N_3  and  C_4
REMARK    4  A    between atoms: N_3  and  S_30
REMARK    5  A    between atoms: C_4  and  C_5
REMARK    6  A    between atoms: C_6  and  O_29
REMARK    7  A    between atoms: C_7  and  O_28
REMARK    8  A    between atoms: C_8  and  N_10
REMARK    9  A    between atoms: C_12  and  C_20
REMARK   10  A    between atoms: C_18  and  N_19
REMARK   11  A    between atoms: C_21  and  C_22
REMARK   12  A    between atoms: S_30  and  C_33
REMARK   13  A    between atoms: C_36  and  O_41
REMARK   14  A    between atoms: C_37  and  C_39
REMARK   15  A    between atoms: O_41  and  C_42
REMARK                            x       y       z     vdW  Elec       q    Type
REMARK                         _______ _______ _______ _____ _____    ______ ____
ROOT
ATOM      1  C   UNL     1      -2.761  12.087 -33.751  1.00  0.00    +0.168 C 
ATOM      2  C   UNL     1      -4.045  12.909 -33.866  1.00  0.00    +0.177 C 
ATOM      3  C   UNL     1      -4.132  13.576 -32.503  1.00  0.00    +0.195 C 
ATOM      4  C   UNL     1      -2.670  13.707 -32.073  1.00  0.00    +0.252 C 
ATOM      5  O   UNL     1      -1.869  12.835 -32.895  1.00  0.00    -0.347 OA
ENDROOT
BRANCH   4   6
ATOM      6  N   UNL     1      -2.128  15.057 -32.150  1.00  0.00    -0.302 N 
ATOM      7  C   UNL     1      -2.903  16.193 -32.232  1.00  0.00    +0.108 A 
ATOM      8  C   UNL     1      -2.058  17.281 -32.278  1.00  0.00    +0.055 A 
ATOM      9  C   UNL     1      -0.720  16.801 -32.229  1.00  0.00    +0.074 A 
ATOM     10  C   UNL     1      -0.798  15.413 -32.151  1.00  0.00    +0.149 A 
ATOM     11  N   UNL     1       0.242  14.563 -32.093  1.00  0.00    -0.218 NA
ATOM     12  C   UNL     1       1.417  15.214 -32.115  1.00  0.00    +0.225 A 
ATOM     13  N   UNL     1       1.635  16.538 -32.182  1.00  0.00    -0.220 NA
ATOM     14  C   UNL     1       0.568  17.360 -32.240  1.00  0.00    +0.130 A 
BRANCH  14  15
ATOM     15  N   UNL     1       0.827  18.707 -32.312  1.00  0.00    -0.342 N 
ATOM     16  H   UNL     1       1.130  19.146 -33.166  1.00  0.00    +0.144 HD
ATOM     17  H   UNL     1       0.712  19.242 -31.464  1.00  0.00    +0.144 HD
ENDBRANCH  14  15
BRANCH   8  18
ATOM     18  C   UNL     1      -2.508  18.631 -32.362  1.00  0.00    -0.059 C 
ATOM     19  C   UNL     1      -2.890  19.767 -32.430  1.00  0.00    -0.059 C 
BRANCH  19  20
ATOM     20  C   UNL     1      -3.351  21.116 -32.507  1.00  0.00    +0.043 A 
ATOM     21  C   UNL     1      -3.436  21.909 -31.365  1.00  0.00    +0.020 A 
ATOM     22  C   UNL     1      -3.887  23.223 -31.478  1.00  0.00    +0.021 A 
ATOM     23  C   UNL     1      -4.236  23.695 -32.734  1.00  0.00    +0.111 A 
ATOM     24  N   UNL     1      -4.165  22.953 -33.861  1.00  0.00    -0.262 NA
ATOM     25  C   UNL     1      -3.726  21.679 -33.721  1.00  0.00    +0.127 A 
ENDBRANCH  19  20
ENDBRANCH   8  18
ENDBRANCH   4   6
BRANCH   3  26
ATOM     26  O   UNL     1      -4.839  12.709 -31.596  1.00  0.00    -0.385 OA
ATOM     27  H   UNL     1      -4.258  11.922 -31.504  1.00  0.00    +0.210 HD
ENDBRANCH   3  26
BRANCH   2  28
ATOM     28  O   UNL     1      -5.215  12.125 -34.091  1.00  0.00    -0.386 OA
ATOM     29  H   UNL     1      -5.377  11.622 -33.262  1.00  0.00    +0.210 HD
ENDBRANCH   2  28
BRANCH   1  30
ATOM     30  C   UNL     1      -2.048  11.840 -35.088  1.00  0.00    +0.143 C 
BRANCH  30  31
ATOM     31  N   UNL     1      -1.375  10.509 -35.111  1.00  0.00    -0.174 NA
BRANCH  31  32
ATOM     32  S   UNL     1       0.322  10.496 -35.082  1.00  0.00    +0.061 S 
ATOM     33  O   UNL     1       0.791  11.765 -34.575  1.00  0.00    -0.153 OA
ATOM     34  O   UNL     1       0.724   9.250 -34.459  1.00  0.00    -0.153 OA
BRANCH  32  35
ATOM     35  C   UNL     1       0.769  10.413 -36.803  1.00  0.00    +0.107 A 
ATOM     36  C   UNL     1       0.394   9.310 -37.570  1.00  0.00    +0.032 A 
ATOM     37  C   UNL     1       0.771   9.236 -38.915  1.00  0.00    +0.049 A 
ATOM     38  C   UNL     1       1.538  10.254 -39.495  1.00  0.00    +0.138 A 
ATOM     39  C   UNL     1       1.934  11.350 -38.707  1.00  0.00    +0.095 A 
ATOM     40  C   UNL     1       1.557  11.425 -37.358  1.00  0.00    +0.051 A 
BRANCH  39  41
ATOM     41  C   UNL     1       2.726  12.414 -39.258  1.00  0.00    +0.103 C 
ATOM     42  N   UNL     1       3.333  13.277 -39.743  1.00  0.00    -0.191 NA
ENDBRANCH  39  41
BRANCH  38  43
ATOM     43  O   UNL     1       1.947  10.269 -40.803  1.00  0.00    -0.494 OA
ATOM     44  C   UNL     1       0.946  10.277 -41.813  1.00  0.00    +0.277 C 
ENDBRANCH  38  43
ENDBRANCH  32  35
ENDBRANCH  31  32
BRANCH  31  46
ATOM     45  C   UNL     1      -3.155   8.802 -35.195  1.00  0.00    +0.022 C 
ATOM     46  C   UNL     1      -2.079   9.452 -34.340  1.00  0.00    +0.106 C 
ENDBRANCH  31  46
ENDBRANCH  30  31
ENDBRANCH   1  30
TORSDOF 13
ENDMDL
MODEL 6
REMARK VINA RESULT:    -8.186      1.997      2.737
REMARK INTER + INTRA:         -14.581
REMARK INTER:                 -13.332
REMARK INTRA:                  -1.249
REMARK UNBOUND:                -0.891
REMARK  Name = 
REMARK  15 active torsions:
REMARK  status: ('A' for Active; 'I' for Inactive)
REMARK    1  A    between atoms: C_1  and  C_2
REMARK    2  A    between atoms: C_2  and  N_3
REMARK    3  A    between atoms: N_3  and  C_4
REMARK    4  A    between atoms: N_3  and  S_30
REMARK    5  A    between atoms: C_4  and  C_5
REMARK    6  A    between atoms: C_6  and  O_29
REMARK    7  A    between atoms: C_7  and  O_28
REMARK    8  A    between atoms: C_8  and  N_10
REMARK    9  A    between atoms: C_12  and  C_20
REMARK   10  A    between atoms: C_18  and  N_19
REMARK   11  A    between atoms: C_21  and  C_22
REMARK   12  A    between atoms: S_30  and  C_33
REMARK   13  A    between atoms: C_36  and  O_41
REMARK   14  A    between atoms: C_37  and  C_39
REMARK   15  A    between atoms: O_41  and  C_42
REMARK                            x       y       z     vdW  Elec       q    Type
REMARK                         _______ _______ _______ _____ _____    ______ ____
ROOT
ATOM      1  C   UNL     1      -3.802  11.665 -33.804  1.00  0.00    +0.168 C 
ATOM      2  C   UNL     1      -3.596  12.378 -35.140  1.00  0.00    +0.177 C 
ATOM      3  C   UNL     1      -4.451  13.625 -34.982  1.00  0.00    +0.195 C 
ATOM      4  C   UNL     1      -4.424  13.890 -33.476  1.00  0.00    +0.252 C 
ATOM      5  O   UNL     1      -3.967  12.697 -32.807  1.00  0.00    -0.347 OA
ENDROOT
BRANCH   4   6
ATOM      6  N   UNL     1      -3.589  15.011 -33.066  1.00  0.00    -0.302 N 
ATOM      7  C   UNL     1      -4.042  16.306 -32.951  1.00  0.00    +0.108 A 
ATOM      8  C   UNL     1      -2.989  17.090 -32.535  1.00  0.00    +0.055 A 
ATOM      9  C   UNL     1      -1.847  16.254 -32.394  1.00  0.00    +0.074 A 
ATOM     10  C   UNL     1      -2.253  14.966 -32.734  1.00  0.00    +0.149 A 
ATOM     11  N   UNL     1      -1.478  13.867 -32.743  1.00  0.00    -0.218 NA
ATOM     12  C   UNL     1      -0.217  14.146 -32.373  1.00  0.00    +0.225 A 
ATOM     13  N   UNL     1       0.304  15.332 -32.017  1.00  0.00    -0.220 NA
ATOM     14  C   UNL     1      -0.503  16.413 -32.021  1.00  0.00    +0.130 A 
BRANCH  14  15
ATOM     15  N   UNL     1       0.064  17.609 -31.656  1.00  0.00    -0.342 N 
ATOM     16  H   UNL     1      -0.165  18.063 -30.788  1.00  0.00    +0.144 HD
ATOM     17  H   UNL     1       0.718  18.023 -32.304  1.00  0.00    +0.144 HD
ENDBRANCH  14  15
BRANCH   8  18
ATOM     18  C   UNL     1      -3.087  18.493 -32.304  1.00  0.00    -0.059 C 
ATOM     19  C   UNL     1      -3.175  19.675 -32.111  1.00  0.00    -0.059 C 
BRANCH  19  20
ATOM     20  C   UNL     1      -3.286  21.080 -31.883  1.00  0.00    +0.043 A 
ATOM     21  C   UNL     1      -3.792  21.926 -32.867  1.00  0.00    +0.020 A 
ATOM     22  C   UNL     1      -3.889  23.293 -32.610  1.00  0.00    +0.021 A 
ATOM     23  C   UNL     1      -3.475  23.761 -31.372  1.00  0.00    +0.111 A 
ATOM     24  N   UNL     1      -2.979  22.968 -30.396  1.00  0.00    -0.262 NA
ATOM     25  C   UNL     1      -2.894  21.645 -30.676  1.00  0.00    +0.127 A 
ENDBRANCH  19  20
ENDBRANCH   8  18
ENDBRANCH   4   6
BRANCH   3  26
ATOM     26  O   UNL     1      -5.796  13.336 -35.410  1.00  0.00    -0.385 OA
ATOM     27  H   UNL     1      -6.015  14.060 -36.037  1.00  0.00    +0.210 HD
ENDBRANCH   3  26
BRANCH   2  28
ATOM     28  O   UNL     1      -4.045  11.630 -36.269  1.00  0.00    -0.386 OA
ATOM     29  H   UNL     1      -3.492  10.818 -36.303  1.00  0.00    +0.210 HD
ENDBRANCH   2  28
BRANCH   1  30
ATOM     30  C   UNL     1      -2.626  10.772 -33.378  1.00  0.00    +0.143 C 
BRANCH  30  31
ATOM     31  N   UNL     1      -2.976   9.325 -33.479  1.00  0.00    -0.174 NA
BRANCH  31  32
ATOM     32  S   UNL     1      -2.171   8.258 -32.433  1.00  0.00    +0.061 S 
ATOM     33  O   UNL     1      -2.165   6.939 -33.025  1.00  0.00    -0.153 OA
ATOM     34  O   UNL     1      -0.933   8.903 -32.042  1.00  0.00    -0.153 OA
BRANCH  32  35
ATOM     35  C   UNL     1      -3.228   8.195 -31.003  1.00  0.00    +0.107 A 
ATOM     36  C   UNL     1      -4.110   7.126 -30.833  1.00  0.00    +0.032 A 
ATOM     37  C   UNL     1      -4.960   7.095 -29.722  1.00  0.00    +0.049 A 
ATOM     38  C   UNL     1      -4.944   8.135 -28.786  1.00  0.00    +0.138 A 
ATOM     39  C   UNL     1      -4.070   9.221 -28.980  1.00  0.00    +0.095 A 
ATOM     40  C   UNL     1      -3.219   9.255 -30.094  1.00  0.00    +0.051 A 
BRANCH  39  41
ATOM     41  C   UNL     1      -4.026  10.315 -28.049  1.00  0.00    +0.103 C 
ATOM     42  N   UNL     1      -4.043  11.199 -27.297  1.00  0.00    -0.191 NA
ENDBRANCH  39  41
BRANCH  38  43
ATOM     43  O   UNL     1      -5.734   8.186 -27.668  1.00  0.00    -0.494 OA
ATOM     44  C   UNL     1      -6.367   6.984 -27.246  1.00  0.00    +0.277 C 
ENDBRANCH  38  43
ENDBRANCH  32  35
ENDBRANCH  31  32
BRANCH  31  46
ATOM     45  C   UNL     1      -4.574   8.414 -35.124  1.00  0.00    +0.022 C 
ATOM     46  C   UNL     1      -4.410   9.057 -33.756  1.00  0.00    +0.106 C 
ENDBRANCH  31  46
ENDBRANCH  30  31
ENDBRANCH   1  30
TORSDOF 13
ENDMDL
MODEL 7
REMARK VINA RESULT:    -8.093      3.929      8.626
REMARK INTER + INTRA:         -14.424
REMARK INTER:                 -10.628
REMARK INTRA:                  -3.797
REMARK UNBOUND:                -0.891
REMARK  Name = 
REMARK  15 active torsions:
REMARK  status: ('A' for Active; 'I' for Inactive)
REMARK    1  A    between atoms: C_1  and  C_2
REMARK    2  A    between atoms: C_2  and  N_3
REMARK    3  A    between atoms: N_3  and  C_4
REMARK    4  A    between atoms: N_3  and  S_30
REMARK    5  A    between atoms: C_4  and  C_5
REMARK    6  A    between atoms: C_6  and  O_29
REMARK    7  A    between atoms: C_7  and  O_28
REMARK    8  A    between atoms: C_8  and  N_10
REMARK    9  A    between atoms: C_12  and  C_20
REMARK   10  A    between atoms: C_18  and  N_19
REMARK   11  A    between atoms: C_21  and  C_22
REMARK   12  A    between atoms: S_30  and  C_33
REMARK   13  A    between atoms: C_36  and  O_41
REMARK   14  A    between atoms: C_37  and  C_39
REMARK   15  A    between atoms: O_41  and  C_42
REMARK                            x       y       z     vdW  Elec       q    Type
REMARK                         _______ _______ _______ _____ _____    ______ ____
ROOT
ATOM      1  C   UNL     1      -1.211  15.476 -32.439  1.00  0.00    +0.168 C 
ATOM      2  C   UNL     1      -2.561  15.901 -31.859  1.00  0.00    +0.177 C 
ATOM      3  C   UNL     1      -3.536  15.454 -32.936  1.00  0.00    +0.195 C 
ATOM      4  C   UNL     1      -2.842  14.250 -33.572  1.00  0.00    +0.252 C 
ATOM      5  O   UNL     1      -1.450  14.269 -33.195  1.00  0.00    -0.347 OA
ENDROOT
BRANCH   4   6
ATOM      6  N   UNL     1      -3.410  12.956 -33.216  1.00  0.00    -0.302 N 
ATOM      7  C   UNL     1      -3.576  12.521 -31.920  1.00  0.00    +0.108 A 
ATOM      8  C   UNL     1      -4.145  11.267 -31.963  1.00  0.00    +0.055 A 
ATOM      9  C   UNL     1      -4.331  10.914 -33.329  1.00  0.00    +0.074 A 
ATOM     10  C   UNL     1      -3.861  11.987 -34.083  1.00  0.00    +0.149 A 
ATOM     11  N   UNL     1      -3.844  12.064 -35.425  1.00  0.00    -0.218 NA
ATOM     12  C   UNL     1      -4.350  10.957 -35.993  1.00  0.00    +0.225 A 
ATOM     13  N   UNL     1      -4.839   9.860 -35.389  1.00  0.00    -0.220 NA
ATOM     14  C   UNL     1      -4.839   9.817 -34.042  1.00  0.00    +0.130 A 
BRANCH  14  15
ATOM     15  N   UNL     1      -5.342   8.680 -33.459  1.00  0.00    -0.342 N 
ATOM     16  H   UNL     1      -4.940   7.772 -33.629  1.00  0.00    +0.144 HD
ATOM     17  H   UNL     1      -6.144   8.789 -32.857  1.00  0.00    +0.144 HD
ENDBRANCH  14  15
BRANCH   8  18
ATOM     18  C   UNL     1      -4.468  10.502 -30.804  1.00  0.00    -0.059 C 
ATOM     19  C   UNL     1      -4.745   9.859 -29.829  1.00  0.00    -0.059 C 
BRANCH  19  20
ATOM     20  C   UNL     1      -5.081   9.097 -28.669  1.00  0.00    +0.043 A 
ATOM     21  C   UNL     1      -5.666   7.838 -28.785  1.00  0.00    +0.020 A 
ATOM     22  C   UNL     1      -5.978   7.120 -27.632  1.00  0.00    +0.021 A 
ATOM     23  C   UNL     1      -5.691   7.692 -26.402  1.00  0.00    +0.111 A 
ATOM     24  N   UNL     1      -5.124   8.910 -26.254  1.00  0.00    -0.262 NA
ATOM     25  C   UNL     1      -4.834   9.585 -27.393  1.00  0.00    +0.127 A 
ENDBRANCH  19  20
ENDBRANCH   8  18
ENDBRANCH   4   6
BRANCH   3  26
ATOM     26  O   UNL     1      -3.688  16.509 -33.906  1.00  0.00    -0.385 OA
ATOM     27  H   UNL     1      -2.856  16.483 -34.429  1.00  0.00    +0.210 HD
ENDBRANCH   3  26
BRANCH   2  28
ATOM     28  O   UNL     1      -2.685  17.308 -31.655  1.00  0.00    -0.386 OA
ATOM     29  H   UNL     1      -1.894  17.585 -31.139  1.00  0.00    +0.210 HD
ENDBRANCH   2  28
BRANCH   1  30
ATOM     30  C   UNL     1      -0.138  15.176 -31.383  1.00  0.00    +0.143 C 
BRANCH  30  31
ATOM     31  N   UNL     1      -0.216  13.763 -30.910  1.00  0.00    -0.174 NA
BRANCH  31  32
ATOM     32  S   UNL     1       0.987  12.695 -31.450  1.00  0.00    +0.061 S 
ATOM     33  O   UNL     1       1.672  13.293 -32.574  1.00  0.00    -0.153 OA
ATOM     34  O   UNL     1       1.721  12.258 -30.279  1.00  0.00    -0.153 OA
BRANCH  32  35
ATOM     35  C   UNL     1       0.066  11.304 -32.068  1.00  0.00    +0.107 A 
ATOM     36  C   UNL     1      -0.465  10.367 -31.179  1.00  0.00    +0.032 A 
ATOM     37  C   UNL     1      -1.164   9.260 -31.670  1.00  0.00    +0.049 A 
ATOM     38  C   UNL     1      -1.324   9.074 -33.049  1.00  0.00    +0.138 A 
ATOM     39  C   UNL     1      -0.763  10.010 -33.938  1.00  0.00    +0.095 A 
ATOM     40  C   UNL     1      -0.060  11.120 -33.447  1.00  0.00    +0.051 A 
BRANCH  39  41
ATOM     41  C   UNL     1      -0.895   9.855 -35.360  1.00  0.00    +0.103 C 
ATOM     42  N   UNL     1      -1.016   9.780 -36.512  1.00  0.00    -0.191 NA
ENDBRANCH  39  41
BRANCH  38  43
ATOM     43  O   UNL     1      -1.997   8.026 -33.619  1.00  0.00    -0.494 OA
ATOM     44  C   UNL     1      -1.711   6.716 -33.145  1.00  0.00    +0.277 C 
ENDBRANCH  38  43
ENDBRANCH  32  35
ENDBRANCH  31  32
BRANCH  31  46
ATOM     45  C   UNL     1       0.165  14.451 -28.571  1.00  0.00    +0.022 C 
ATOM     46  C   UNL     1      -0.686  13.610 -29.509  1.00  0.00    +0.106 C 
ENDBRANCH  31  46
ENDBRANCH  30  31
ENDBRANCH   1  30
TORSDOF 13
ENDMDL
MODEL 8
REMARK VINA RESULT:    -8.054      1.589      2.214
REMARK INTER + INTRA:         -14.360
REMARK INTER:                 -13.370
REMARK INTRA:                  -0.990
REMARK UNBOUND:                -0.891
REMARK  Name = 
REMARK  15 active torsions:
REMARK  status: ('A' for Active; 'I' for Inactive)
REMARK    1  A    between atoms: C_1  and  C_2
REMARK    2  A    between atoms: C_2  and  N_3
REMARK    3  A    between atoms: N_3  and  C_4
REMARK    4  A    between atoms: N_3  and  S_30
REMARK    5  A    between atoms: C_4  and  C_5
REMARK    6  A    between atoms: C_6  and  O_29
REMARK    7  A    between atoms: C_7  and  O_28
REMARK    8  A    between atoms: C_8  and  N_10
REMARK    9  A    between atoms: C_12  and  C_20
REMARK   10  A    between atoms: C_18  and  N_19
REMARK   11  A    between atoms: C_21  and  C_22
REMARK   12  A    between atoms: S_30  and  C_33
REMARK   13  A    between atoms: C_36  and  O_41
REMARK   14  A    between atoms: C_37  and  C_39
REMARK   15  A    between atoms: O_41  and  C_42
REMARK                            x       y       z     vdW  Elec       q    Type
REMARK                         _______ _______ _______ _____ _____    ______ ____
ROOT
ATOM      1  C   UNL     1      -4.053  11.426 -33.334  1.00  0.00    +0.168 C 
ATOM      2  C   UNL     1      -2.952  11.604 -34.379  1.00  0.00    +0.177 C 
ATOM      3  C   UNL     1      -3.354  12.902 -35.062  1.00  0.00    +0.195 C 
ATOM      4  C   UNL     1      -4.086  13.673 -33.964  1.00  0.00    +0.252 C 
ATOM      5  O   UNL     1      -4.437  12.753 -32.911  1.00  0.00    -0.347 OA
ENDROOT
BRANCH   4   6
ATOM      6  N   UNL     1      -3.338  14.783 -33.391  1.00  0.00    -0.302 N 
ATOM      7  C   UNL     1      -3.816  16.072 -33.308  1.00  0.00    +0.108 A 
ATOM      8  C   UNL     1      -2.850  16.847 -32.706  1.00  0.00    +0.055 A 
ATOM      9  C   UNL     1      -1.736  16.011 -32.413  1.00  0.00    +0.074 A 
ATOM     10  C   UNL     1      -2.071  14.734 -32.854  1.00  0.00    +0.149 A 
ATOM     11  N   UNL     1      -1.294  13.639 -32.774  1.00  0.00    -0.218 NA
ATOM     12  C   UNL     1      -0.111  13.911 -32.200  1.00  0.00    +0.225 A 
ATOM     13  N   UNL     1       0.336  15.087 -31.729  1.00  0.00    -0.220 NA
ATOM     14  C   UNL     1      -0.470  16.164 -31.826  1.00  0.00    +0.130 A 
BRANCH  14  15
ATOM     15  N   UNL     1       0.021  17.350 -31.338  1.00  0.00    -0.342 N 
ATOM     16  H   UNL     1       0.908  17.721 -31.635  1.00  0.00    +0.144 HD
ATOM     17  H   UNL     1      -0.544  17.833 -30.656  1.00  0.00    +0.144 HD
ENDBRANCH  14  15
BRANCH   8  18
ATOM     18  C   UNL     1      -2.996  18.241 -32.449  1.00  0.00    -0.059 C 
ATOM     19  C   UNL     1      -3.116  19.416 -32.229  1.00  0.00    -0.059 C 
BRANCH  19  20
ATOM     20  C   UNL     1      -3.253  20.811 -31.962  1.00  0.00    +0.043 A 
ATOM     21  C   UNL     1      -2.950  21.332 -30.707  1.00  0.00    +0.020 A 
ATOM     22  C   UNL     1      -3.093  22.701 -30.482  1.00  0.00    +0.021 A 
ATOM     23  C   UNL     1      -3.535  23.498 -31.527  1.00  0.00    +0.111 A 
ATOM     24  N   UNL     1      -3.837  23.024 -32.757  1.00  0.00    -0.262 NA
ATOM     25  C   UNL     1      -3.691  21.690 -32.945  1.00  0.00    +0.127 A 
ENDBRANCH  19  20
ENDBRANCH   8  18
ENDBRANCH   4   6
BRANCH   3  26
ATOM     26  O   UNL     1      -4.254  12.607 -36.147  1.00  0.00    -0.385 OA
ATOM     27  H   UNL     1      -5.149  12.646 -35.742  1.00  0.00    +0.210 HD
ENDBRANCH   3  26
BRANCH   2  28
ATOM     28  O   UNL     1      -2.895  10.553 -35.343  1.00  0.00    -0.386 OA
ATOM     29  H   UNL     1      -2.193   9.935 -35.040  1.00  0.00    +0.210 HD
ENDBRANCH   2  28
BRANCH   1  30
ATOM     30  C   UNL     1      -3.621  10.633 -32.092  1.00  0.00    +0.143 C 
BRANCH  30  31
ATOM     31  N   UNL     1      -4.393   9.364 -31.958  1.00  0.00    -0.174 NA
BRANCH  31  32
ATOM     32  S   UNL     1      -3.922   8.294 -30.728  1.00  0.00    +0.061 S 
ATOM     33  O   UNL     1      -5.104   7.791 -30.067  1.00  0.00    -0.153 OA
ATOM     34  O   UNL     1      -2.950   7.387 -31.307  1.00  0.00    -0.153 OA
BRANCH  32  35
ATOM     35  C   UNL     1      -3.069   9.340 -29.568  1.00  0.00    +0.107 A 
ATOM     36  C   UNL     1      -1.725   9.659 -29.771  1.00  0.00    +0.032 A 
ATOM     37  C   UNL     1      -1.051  10.458 -28.842  1.00  0.00    +0.049 A 
ATOM     38  C   UNL     1      -1.708  10.928 -27.699  1.00  0.00    +0.138 A 
ATOM     39  C   UNL     1      -3.056  10.580 -27.489  1.00  0.00    +0.095 A 
ATOM     40  C   UNL     1      -3.732   9.777 -28.419  1.00  0.00    +0.051 A 
BRANCH  39  41
ATOM     41  C   UNL     1      -3.768  11.034 -26.327  1.00  0.00    +0.103 C 
ATOM     42  N   UNL     1      -4.378  11.422 -25.419  1.00  0.00    -0.191 NA
ENDBRANCH  39  41
BRANCH  38  43
ATOM     43  O   UNL     1      -1.131  11.719 -26.741  1.00  0.00    -0.494 OA
ATOM     44  C   UNL     1       0.134  11.323 -26.225  1.00  0.00    +0.277 C 
ENDBRANCH  38  43
ENDBRANCH  32  35
ENDBRANCH  31  32
BRANCH  31  46
ATOM     45  C   UNL     1      -6.305   8.443 -33.218  1.00  0.00    +0.022 C 
ATOM     46  C   UNL     1      -5.849   9.499 -32.224  1.00  0.00    +0.106 C 
ENDBRANCH  31  46
ENDBRANCH  30  31
ENDBRANCH   1  30
TORSDOF 13
ENDMDL
MODEL 9
REMARK VINA RESULT:    -8.046      3.416      9.932
REMARK INTER + INTRA:         -14.346
REMARK INTER:                 -12.718
REMARK INTRA:                  -1.628
REMARK UNBOUND:                -0.891
REMARK  Name = 
REMARK  15 active torsions:
REMARK  status: ('A' for Active; 'I' for Inactive)
REMARK    1  A    between atoms: C_1  and  C_2
REMARK    2  A    between atoms: C_2  and  N_3
REMARK    3  A    between atoms: N_3  and  C_4
REMARK    4  A    between atoms: N_3  and  S_30
REMARK    5  A    between atoms: C_4  and  C_5
REMARK    6  A    between atoms: C_6  and  O_29
REMARK    7  A    between atoms: C_7  and  O_28
REMARK    8  A    between atoms: C_8  and  N_10
REMARK    9  A    between atoms: C_12  and  C_20
REMARK   10  A    between atoms: C_18  and  N_19
REMARK   11  A    between atoms: C_21  and  C_22
REMARK   12  A    between atoms: S_30  and  C_33
REMARK   13  A    between atoms: C_36  and  O_41
REMARK   14  A    between atoms: C_37  and  C_39
REMARK   15  A    between atoms: O_41  and  C_42
REMARK                            x       y       z     vdW  Elec       q    Type
REMARK                         _______ _______ _______ _____ _____    ______ ____
ROOT
ATOM      1  C   UNL     1      -1.782  16.041 -32.690  1.00  0.00    +0.168 C 
ATOM      2  C   UNL     1      -3.271  16.330 -32.504  1.00  0.00    +0.177 C 
ATOM      3  C   UNL     1      -3.923  15.262 -33.368  1.00  0.00    +0.195 C 
ATOM      4  C   UNL     1      -2.922  14.107 -33.327  1.00  0.00    +0.252 C 
ATOM      5  O   UNL     1      -1.657  14.611 -32.853  1.00  0.00    -0.347 OA
ENDROOT
BRANCH   4   6
ATOM      6  N   UNL     1      -3.322  12.979 -32.496  1.00  0.00    -0.302 N 
ATOM      7  C   UNL     1      -3.170  12.940 -31.128  1.00  0.00    +0.108 A 
ATOM      8  C   UNL     1      -3.663  11.734 -30.680  1.00  0.00    +0.055 A 
ATOM      9  C   UNL     1      -4.128  11.002 -31.808  1.00  0.00    +0.074 A 
ATOM     10  C   UNL     1      -3.900  11.805 -32.923  1.00  0.00    +0.149 A 
ATOM     11  N   UNL     1      -4.188  11.489 -34.198  1.00  0.00    -0.218 NA
ATOM     12  C   UNL     1      -4.745  10.271 -34.295  1.00  0.00    +0.225 A 
ATOM     13  N   UNL     1      -5.024   9.401 -33.309  1.00  0.00    -0.220 NA
ATOM     14  C   UNL     1      -4.720   9.751 -32.043  1.00  0.00    +0.130 A 
BRANCH  14  15
ATOM     15  N   UNL     1      -5.015   8.837 -31.061  1.00  0.00    -0.342 N 
ATOM     16  H   UNL     1      -5.818   8.941 -30.462  1.00  0.00    +0.144 HD
ATOM     17  H   UNL     1      -4.384   8.057 -30.956  1.00  0.00    +0.144 HD
ENDBRANCH  14  15
BRANCH   8  18
ATOM     18  C   UNL     1      -3.674  11.341 -29.310  1.00  0.00    -0.059 C 
ATOM     19  C   UNL     1      -3.689  11.013 -28.155  1.00  0.00    -0.059 C 
BRANCH  19  20
ATOM     20  C   UNL     1      -3.711  10.628 -26.780  1.00  0.00    +0.043 A 
ATOM     21  C   UNL     1      -2.707   9.825 -26.247  1.00  0.00    +0.020 A 
ATOM     22  C   UNL     1      -2.758   9.471 -24.899  1.00  0.00    +0.021 A 
ATOM     23  C   UNL     1      -3.817   9.937 -24.135  1.00  0.00    +0.111 A 
ATOM     24  N   UNL     1      -4.807  10.718 -24.622  1.00  0.00    -0.262 NA
ATOM     25  C   UNL     1      -4.732  11.044 -25.935  1.00  0.00    +0.127 A 
ENDBRANCH  19  20
ENDBRANCH   8  18
ENDBRANCH   4   6
BRANCH   3  26
ATOM     26  O   UNL     1      -4.055  15.757 -34.714  1.00  0.00    -0.385 OA
ATOM     27  H   UNL     1      -3.417  16.503 -34.766  1.00  0.00    +0.210 HD
ENDBRANCH   3  26
BRANCH   2  28
ATOM     28  O   UNL     1      -3.670  17.623 -32.959  1.00  0.00    -0.386 OA
ATOM     29  H   UNL     1      -2.963  18.247 -32.680  1.00  0.00    +0.210 HD
ENDBRANCH   2  28
BRANCH   1  30
ATOM     30  C   UNL     1      -0.904  16.466 -31.503  1.00  0.00    +0.143 C 
BRANCH  30  31
ATOM     31  N   UNL     1       0.417  16.987 -31.959  1.00  0.00    -0.174 NA
BRANCH  31  32
ATOM     32  S   UNL     1       0.877  18.525 -31.408  1.00  0.00    +0.061 S 
ATOM     33  O   UNL     1       1.183  18.445 -29.999  1.00  0.00    -0.153 OA
ATOM     34  O   UNL     1       1.849  19.038 -32.353  1.00  0.00    -0.153 OA
BRANCH  32  35
ATOM     35  C   UNL     1      -0.608  19.492 -31.576  1.00  0.00    +0.107 A 
ATOM     36  C   UNL     1      -1.156  19.718 -32.839  1.00  0.00    +0.032 A 
ATOM     37  C   UNL     1      -2.308  20.501 -32.969  1.00  0.00    +0.049 A 
ATOM     38  C   UNL     1      -2.907  21.075 -31.842  1.00  0.00    +0.138 A 
ATOM     39  C   UNL     1      -2.333  20.863 -30.574  1.00  0.00    +0.095 A 
ATOM     40  C   UNL     1      -1.177  20.079 -30.444  1.00  0.00    +0.051 A 
BRANCH  39  41
ATOM     41  C   UNL     1      -2.910  21.439 -29.392  1.00  0.00    +0.103 C 
ATOM     42  N   UNL     1      -3.364  21.860 -28.410  1.00  0.00    -0.191 NA
ENDBRANCH  39  41
BRANCH  38  43
ATOM     43  O   UNL     1      -4.037  21.849 -31.873  1.00  0.00    -0.494 OA
ATOM     44  C   UNL     1      -4.084  22.920 -32.808  1.00  0.00    +0.277 C 
ENDBRANCH  38  43
ENDBRANCH  32  35
ENDBRANCH  31  32
BRANCH  31  46
ATOM     45  C   UNL     1       1.397  14.985 -30.902  1.00  0.00    +0.022 C 
ATOM     46  C   UNL     1       1.480  15.955 -32.069  1.00  0.00    +0.106 C 
ENDBRANCH  31  46
ENDBRANCH  30  31
ENDBRANCH   1  30
TORSDOF 13
ENDMDL
