MODEL 1
REMARK VINA RESULT:    -8.891      0.000      0.000
REMARK INTER + INTRA:         -15.682
REMARK INTER:                 -14.869
REMARK INTRA:                  -0.813
REMARK UNBOUND:                -0.813
REMARK  Name = 
REMARK  15 active torsions:
REMARK  status: ('A' for Active; 'I' for Inactive)
REMARK    1  A    between atoms: C_1  and  C_2
REMARK    2  A    between atoms: C_2  and  N_3
REMARK    3  A    between atoms: N_3  and  C_4
REMARK    4  A    between atoms: N_3  and  S_30
REMARK    5  A    between atoms: C_4  and  C_5
REMARK    6  A    between atoms: C_6  and  O_29
REMARK    7  A    between atoms: C_7  and  O_28
REMARK    8  A    between atoms: C_8  and  N_10
REMARK    9  A    between atoms: C_12  and  C_20
REMARK   10  A    between atoms: C_18  and  N_19
REMARK   11  A    between atoms: C_21  and  C_22
REMARK   12  A    between atoms: S_30  and  C_33
REMARK   13  A    between atoms: C_36  and  O_41
REMARK   14  A    between atoms: C_37  and  C_39
REMARK   15  A    between atoms: O_41  and  C_42
REMARK                            x       y       z     vdW  Elec       q    Type
REMARK                         _______ _______ _______ _____ _____    ______ ____
ROOT
ATOM      1  C   UNL     1      -3.636  11.529 -32.851  1.00  0.00    +0.168 C 
ATOM      2  C   UNL     1      -2.713  11.748 -34.050  1.00  0.00    +0.177 C 
ATOM      3  C   UNL     1      -3.317  12.978 -34.709  1.00  0.00    +0.195 C 
ATOM      4  C   UNL     1      -3.951  13.736 -33.542  1.00  0.00    +0.252 C 
ATOM      5  O   UNL     1      -4.069  12.838 -32.420  1.00  0.00    -0.347 OA
ENDROOT
BRANCH   4   6
ATOM      6  N   UNL     1      -3.226  14.927 -33.120  1.00  0.00    -0.302 N 
ATOM      7  C   UNL     1      -3.769  16.192 -33.107  1.00  0.00    +0.108 A 
ATOM      8  C   UNL     1      -2.806  17.062 -32.644  1.00  0.00    +0.055 A 
ATOM      9  C   UNL     1      -1.630  16.312 -32.368  1.00  0.00    +0.074 A 
ATOM     10  C   UNL     1      -1.924  14.986 -32.677  1.00  0.00    +0.149 A 
ATOM     11  N   UNL     1      -1.083  13.942 -32.567  1.00  0.00    -0.218 NA
ATOM     12  C   UNL     1       0.121  14.320 -32.107  1.00  0.00    +0.225 A 
ATOM     13  N   UNL     1       0.534  15.553 -31.769  1.00  0.00    -0.220 NA
ATOM     14  C   UNL     1      -0.336  16.576 -31.893  1.00  0.00    +0.130 A 
BRANCH  14  15
ATOM     15  N   UNL     1       0.121  17.822 -31.541  1.00  0.00    -0.342 N 
ATOM     16  H   UNL     1      -0.501  18.607 -31.437  1.00  0.00    +0.144 HD
ATOM     17  H   UNL     1       1.115  17.924 -31.401  1.00  0.00    +0.144 HD
ENDBRANCH  14  15
BRANCH   8  18
ATOM     18  C   UNL     1      -3.012  18.465 -32.492  1.00  0.00    -0.059 C 
ATOM     19  C   UNL     1      -3.180  19.647 -32.361  1.00  0.00    -0.059 C 
BRANCH  19  20
ATOM     20  C   UNL     1      -3.374  21.052 -32.202  1.00  0.00    +0.043 A 
ATOM     21  C   UNL     1      -3.797  21.841 -33.269  1.00  0.00    +0.020 A 
ATOM     22  C   UNL     1      -3.980  23.209 -33.077  1.00  0.00    +0.021 A 
ATOM     23  C   UNL     1      -3.731  23.737 -31.820  1.00  0.00    +0.111 A 
ATOM     24  N   UNL     1      -3.320  23.001 -30.764  1.00  0.00    -0.262 NA
ATOM     25  C   UNL     1      -3.149  21.674 -30.981  1.00  0.00    +0.127 A 
ENDBRANCH  19  20
ENDBRANCH   8  18
ENDBRANCH   4   6
BRANCH   3  26
ATOM     26  O   UNL     1      -4.334  12.564 -35.643  1.00  0.00    -0.385 OA
ATOM     27  H   UNL     1      -4.855  13.379 -35.816  1.00  0.00    +0.210 HD
ENDBRANCH   3  26
BRANCH   2  28
ATOM     28  O   UNL     1      -2.704  10.663 -34.978  1.00  0.00    -0.386 OA
ATOM     29  H   UNL     1      -2.771  11.063 -35.874  1.00  0.00    +0.210 HD
ENDBRANCH   2  28
BRANCH   1  30
ATOM     30  C   UNL     1      -2.966  10.829 -31.660  1.00  0.00    +0.143 C 
BRANCH  30  31
ATOM     31  N   UNL     1      -3.820  10.893 -30.438  1.00  0.00    -0.174 NA
BRANCH  31  32
ATOM     32  S   UNL     1      -4.533   9.445 -29.912  1.00  0.00    +0.061 S 
ATOM     33  O   UNL     1      -5.970   9.584 -29.972  1.00  0.00    -0.153 OA
ATOM     34  O   UNL     1      -3.858   8.366 -30.607  1.00  0.00    -0.153 OA
BRANCH  32  35
ATOM     35  C   UNL     1      -4.079   9.355 -28.194  1.00  0.00    +0.107 A 
ATOM     36  C   UNL     1      -3.054   8.500 -27.785  1.00  0.00    +0.032 A 
ATOM     37  C   UNL     1      -2.719   8.412 -26.430  1.00  0.00    +0.049 A 
ATOM     38  C   UNL     1      -3.416   9.163 -25.476  1.00  0.00    +0.138 A 
ATOM     39  C   UNL     1      -4.465  10.003 -25.893  1.00  0.00    +0.095 A 
ATOM     40  C   UNL     1      -4.802  10.091 -27.252  1.00  0.00    +0.051 A 
BRANCH  39  41
ATOM     41  C   UNL     1      -5.211  10.785 -24.948  1.00  0.00    +0.103 C 
ATOM     42  N   UNL     1      -5.844  11.435 -24.223  1.00  0.00    -0.191 NA
ENDBRANCH  39  41
BRANCH  38  43
ATOM     43  O   UNL     1      -3.154   9.145 -24.131  1.00  0.00    -0.494 OA
ATOM     44  C   UNL     1      -3.608   8.025 -23.380  1.00  0.00    +0.277 C 
ENDBRANCH  38  43
ENDBRANCH  32  35
ENDBRANCH  31  32
BRANCH  31  46
ATOM     45  C   UNL     1      -1.822  11.994 -29.497  1.00  0.00    +0.022 C 
ATOM     46  C   UNL     1      -3.330  11.831 -29.395  1.00  0.00    +0.106 C 
ENDBRANCH  31  46
ENDBRANCH  30  31
ENDBRANCH   1  30
TORSDOF 13
ENDMDL
MODEL 2
REMARK VINA RESULT:    -8.763      3.054      4.176
REMARK INTER + INTRA:         -15.467
REMARK INTER:                 -13.888
REMARK INTRA:                  -1.579
REMARK UNBOUND:                -0.813
REMARK  Name = 
REMARK  15 active torsions:
REMARK  status: ('A' for Active; 'I' for Inactive)
REMARK    1  A    between atoms: C_1  and  C_2
REMARK    2  A    between atoms: C_2  and  N_3
REMARK    3  A    between atoms: N_3  and  C_4
REMARK    4  A    between atoms: N_3  and  S_30
REMARK    5  A    between atoms: C_4  and  C_5
REMARK    6  A    between atoms: C_6  and  O_29
REMARK    7  A    between atoms: C_7  and  O_28
REMARK    8  A    between atoms: C_8  and  N_10
REMARK    9  A    between atoms: C_12  and  C_20
REMARK   10  A    between atoms: C_18  and  N_19
REMARK   11  A    between atoms: C_21  and  C_22
REMARK   12  A    between atoms: S_30  and  C_33
REMARK   13  A    between atoms: C_36  and  O_41
REMARK   14  A    between atoms: C_37  and  C_39
REMARK   15  A    between atoms: O_41  and  C_42
REMARK                            x       y       z     vdW  Elec       q    Type
REMARK                         _______ _______ _______ _____ _____    ______ ____
ROOT
ATOM      1  C   UNL     1      -2.714  12.086 -33.577  1.00  0.00    +0.168 C 
ATOM      2  C   UNL     1      -3.997  12.896 -33.766  1.00  0.00    +0.177 C 
ATOM      3  C   UNL     1      -4.128  13.618 -32.434  1.00  0.00    +0.195 C 
ATOM      4  C   UNL     1      -2.681  13.775 -31.967  1.00  0.00    +0.252 C 
ATOM      5  O   UNL     1      -1.851  12.873 -32.727  1.00  0.00    -0.347 OA
ENDROOT
BRANCH   4   6
ATOM      6  N   UNL     1      -2.142  15.123 -32.083  1.00  0.00    -0.302 N 
ATOM      7  C   UNL     1      -2.920  16.257 -32.168  1.00  0.00    +0.108 A 
ATOM      8  C   UNL     1      -2.078  17.344 -32.256  1.00  0.00    +0.055 A 
ATOM      9  C   UNL     1      -0.738  16.866 -32.231  1.00  0.00    +0.074 A 
ATOM     10  C   UNL     1      -0.813  15.480 -32.125  1.00  0.00    +0.149 A 
ATOM     11  N   UNL     1       0.230  14.632 -32.076  1.00  0.00    -0.218 NA
ATOM     12  C   UNL     1       1.402  15.283 -32.140  1.00  0.00    +0.225 A 
ATOM     13  N   UNL     1       1.617  16.606 -32.238  1.00  0.00    -0.220 NA
ATOM     14  C   UNL     1       0.548  17.426 -32.286  1.00  0.00    +0.130 A 
BRANCH  14  15
ATOM     15  N   UNL     1       0.804  18.771 -32.390  1.00  0.00    -0.342 N 
ATOM     16  H   UNL     1       0.607  19.410 -31.638  1.00  0.00    +0.144 HD
ATOM     17  H   UNL     1       1.193  19.097 -33.263  1.00  0.00    +0.144 HD
ENDBRANCH  14  15
BRANCH   8  18
ATOM     18  C   UNL     1      -2.531  18.692 -32.356  1.00  0.00    -0.059 C 
ATOM     19  C   UNL     1      -2.917  19.826 -32.437  1.00  0.00    -0.059 C 
BRANCH  19  20
ATOM     20  C   UNL     1      -3.382  21.173 -32.532  1.00  0.00    +0.043 A 
ATOM     21  C   UNL     1      -3.478  21.977 -31.398  1.00  0.00    +0.020 A 
ATOM     22  C   UNL     1      -3.933  23.288 -31.528  1.00  0.00    +0.021 A 
ATOM     23  C   UNL     1      -4.275  23.746 -32.791  1.00  0.00    +0.111 A 
ATOM     24  N   UNL     1      -4.193  22.992 -33.910  1.00  0.00    -0.262 NA
ATOM     25  C   UNL     1      -3.750  21.721 -33.753  1.00  0.00    +0.127 A 
ENDBRANCH  19  20
ENDBRANCH   8  18
ENDBRANCH   4   6
BRANCH   3  26
ATOM     26  O   UNL     1      -4.859  12.785 -31.513  1.00  0.00    -0.385 OA
ATOM     27  H   UNL     1      -5.674  12.533 -32.003  1.00  0.00    +0.210 HD
ENDBRANCH   3  26
BRANCH   2  28
ATOM     28  O   UNL     1      -5.157  12.096 -33.993  1.00  0.00    -0.386 OA
ATOM     29  H   UNL     1      -5.924  12.622 -33.674  1.00  0.00    +0.210 HD
ENDBRANCH   2  28
BRANCH   1  30
ATOM     30  C   UNL     1      -1.959  11.787 -34.881  1.00  0.00    +0.143 C 
BRANCH  30  31
ATOM     31  N   UNL     1      -1.682  10.329 -35.030  1.00  0.00    -0.174 NA
BRANCH  31  32
ATOM     32  S   UNL     1      -2.974   9.337 -35.505  1.00  0.00    +0.061 S 
ATOM     33  O   UNL     1      -4.108  10.171 -35.832  1.00  0.00    -0.153 OA
ATOM     34  O   UNL     1      -2.447   8.388 -36.466  1.00  0.00    -0.153 OA
BRANCH  32  35
ATOM     35  C   UNL     1      -3.383   8.442 -34.023  1.00  0.00    +0.107 A 
ATOM     36  C   UNL     1      -2.982   7.113 -33.876  1.00  0.00    +0.032 A 
ATOM     37  C   UNL     1      -3.329   6.405 -32.721  1.00  0.00    +0.049 A 
ATOM     38  C   UNL     1      -4.091   7.013 -31.716  1.00  0.00    +0.138 A 
ATOM     39  C   UNL     1      -4.513   8.345 -31.885  1.00  0.00    +0.095 A 
ATOM     40  C   UNL     1      -4.167   9.056 -33.043  1.00  0.00    +0.051 A 
BRANCH  39  41
ATOM     41  C   UNL     1      -5.303   9.006 -30.883  1.00  0.00    +0.103 C 
ATOM     42  N   UNL     1      -5.973   9.556 -30.111  1.00  0.00    -0.191 NA
ENDBRANCH  39  41
BRANCH  38  43
ATOM     43  O   UNL     1      -4.472   6.400 -30.551  1.00  0.00    -0.494 OA
ATOM     44  C   UNL     1      -3.480   6.193 -29.553  1.00  0.00    +0.277 C 
ENDBRANCH  38  43
ENDBRANCH  32  35
ENDBRANCH  31  32
BRANCH  31  46
ATOM     45  C   UNL     1       0.449   9.161 -34.599  1.00  0.00    +0.022 C 
ATOM     46  C   UNL     1      -0.340  10.012 -35.582  1.00  0.00    +0.106 C 
ENDBRANCH  31  46
ENDBRANCH  30  31
ENDBRANCH   1  30
TORSDOF 13
ENDMDL
MODEL 3
REMARK VINA RESULT:    -8.758      4.014      6.210
REMARK INTER + INTRA:         -15.460
REMARK INTER:                 -14.162
REMARK INTRA:                  -1.297
REMARK UNBOUND:                -0.813
REMARK  Name = 
REMARK  15 active torsions:
REMARK  status: ('A' for Active; 'I' for Inactive)
REMARK    1  A    between atoms: C_1  and  C_2
REMARK    2  A    between atoms: C_2  and  N_3
REMARK    3  A    between atoms: N_3  and  C_4
REMARK    4  A    between atoms: N_3  and  S_30
REMARK    5  A    between atoms: C_4  and  C_5
REMARK    6  A    between atoms: C_6  and  O_29
REMARK    7  A    between atoms: C_7  and  O_28
REMARK    8  A    between atoms: C_8  and  N_10
REMARK    9  A    between atoms: C_12  and  C_20
REMARK   10  A    between atoms: C_18  and  N_19
REMARK   11  A    between atoms: C_21  and  C_22
REMARK   12  A    between atoms: S_30  and  C_33
REMARK   13  A    between atoms: C_36  and  O_41
REMARK   14  A    between atoms: C_37  and  C_39
REMARK   15  A    between atoms: O_41  and  C_42
REMARK                            x       y       z     vdW  Elec       q    Type
REMARK                         _______ _______ _______ _____ _____    ______ ____
ROOT
ATOM      1  C   UNL     1      -3.432  12.828 -33.204  1.00  0.00    +0.168 C 
ATOM      2  C   UNL     1      -3.992  13.336 -31.875  1.00  0.00    +0.177 C 
ATOM      3  C   UNL     1      -2.733  13.554 -31.050  1.00  0.00    +0.195 C 
ATOM      4  C   UNL     1      -1.671  13.888 -32.098  1.00  0.00    +0.252 C 
ATOM      5  O   UNL     1      -2.161  13.488 -33.394  1.00  0.00    -0.347 OA
ENDROOT
BRANCH   4   6
ATOM      6  N   UNL     1      -1.284  15.291 -32.153  1.00  0.00    -0.302 N 
ATOM      7  C   UNL     1      -2.180  16.333 -32.251  1.00  0.00    +0.108 A 
ATOM      8  C   UNL     1      -1.464  17.509 -32.268  1.00  0.00    +0.055 A 
ATOM      9  C   UNL     1      -0.081  17.184 -32.184  1.00  0.00    +0.074 A 
ATOM     10  C   UNL     1      -0.004  15.795 -32.115  1.00  0.00    +0.149 A 
ATOM     11  N   UNL     1       1.125  15.069 -32.032  1.00  0.00    -0.218 NA
ATOM     12  C   UNL     1       2.218  15.849 -32.017  1.00  0.00    +0.225 A 
ATOM     13  N   UNL     1       2.286  17.190 -32.072  1.00  0.00    -0.220 NA
ATOM     14  C   UNL     1       1.134  17.886 -32.156  1.00  0.00    +0.130 A 
BRANCH  14  15
ATOM     15  N   UNL     1       1.241  19.253 -32.214  1.00  0.00    -0.342 N 
ATOM     16  H   UNL     1       0.515  19.828 -32.610  1.00  0.00    +0.144 HD
ATOM     17  H   UNL     1       2.088  19.663 -31.850  1.00  0.00    +0.144 HD
ENDBRANCH  14  15
BRANCH   8  18
ATOM     18  C   UNL     1      -2.061  18.800 -32.359  1.00  0.00    -0.059 C 
ATOM     19  C   UNL     1      -2.565  19.888 -32.430  1.00  0.00    -0.059 C 
BRANCH  19  20
ATOM     20  C   UNL     1      -3.166  21.181 -32.508  1.00  0.00    +0.043 A 
ATOM     21  C   UNL     1      -3.332  21.962 -31.367  1.00  0.00    +0.020 A 
ATOM     22  C   UNL     1      -3.920  23.221 -31.480  1.00  0.00    +0.021 A 
ATOM     23  C   UNL     1      -4.320  23.651 -32.736  1.00  0.00    +0.111 A 
ATOM     24  N   UNL     1      -4.173  22.918 -33.862  1.00  0.00    -0.262 NA
ATOM     25  C   UNL     1      -3.602  21.698 -33.721  1.00  0.00    +0.127 A 
ENDBRANCH  19  20
ENDBRANCH   8  18
ENDBRANCH   4   6
BRANCH   3  26
ATOM     26  O   UNL     1      -2.393  12.330 -30.372  1.00  0.00    -0.385 OA
ATOM     27  H   UNL     1      -3.030  11.668 -30.723  1.00  0.00    +0.210 HD
ENDBRANCH   3  26
BRANCH   2  28
ATOM     28  O   UNL     1      -4.843  12.401 -31.211  1.00  0.00    -0.386 OA
ATOM     29  H   UNL     1      -5.713  12.846 -31.103  1.00  0.00    +0.210 HD
ENDBRANCH   2  28
BRANCH   1  30
ATOM     30  C   UNL     1      -4.319  13.136 -34.420  1.00  0.00    +0.143 C 
BRANCH  30  31
ATOM     31  N   UNL     1      -4.219  12.066 -35.454  1.00  0.00    -0.174 NA
BRANCH  31  32
ATOM     32  S   UNL     1      -4.323  10.458 -34.920  1.00  0.00    +0.061 S 
ATOM     33  O   UNL     1      -4.568  10.454 -33.496  1.00  0.00    -0.153 OA
ATOM     34  O   UNL     1      -5.215   9.768 -35.831  1.00  0.00    -0.153 OA
BRANCH  32  35
ATOM     35  C   UNL     1      -2.681   9.823 -35.180  1.00  0.00    +0.107 A 
ATOM     36  C   UNL     1      -2.387   8.496 -34.865  1.00  0.00    +0.032 A 
ATOM     37  C   UNL     1      -1.088   8.009 -35.044  1.00  0.00    +0.049 A 
ATOM     38  C   UNL     1      -0.075   8.847 -35.523  1.00  0.00    +0.138 A 
ATOM     39  C   UNL     1      -0.374  10.191 -35.813  1.00  0.00    +0.095 A 
ATOM     40  C   UNL     1      -1.676  10.681 -35.632  1.00  0.00    +0.051 A 
BRANCH  39  41
ATOM     41  C   UNL     1       0.636  11.089 -36.299  1.00  0.00    +0.103 C 
ATOM     42  N   UNL     1       1.467  11.779 -36.727  1.00  0.00    -0.191 NA
ENDBRANCH  39  41
BRANCH  38  43
ATOM     43  O   UNL     1       1.222   8.456 -35.735  1.00  0.00    -0.494 OA
ATOM     44  C   UNL     1       1.464   7.467 -36.728  1.00  0.00    +0.277 C 
ENDBRANCH  38  43
ENDBRANCH  32  35
ENDBRANCH  31  32
BRANCH  31  46
ATOM     45  C   UNL     1      -5.875  13.523 -36.560  1.00  0.00    +0.022 C 
ATOM     46  C   UNL     1      -4.869  12.399 -36.748  1.00  0.00    +0.106 C 
ENDBRANCH  31  46
ENDBRANCH  30  31
ENDBRANCH   1  30
TORSDOF 13
ENDMDL
MODEL 4
REMARK VINA RESULT:    -8.742      1.024      1.401
REMARK INTER + INTRA:         -15.432
REMARK INTER:                 -14.351
REMARK INTRA:                  -1.080
REMARK UNBOUND:                -0.813
REMARK  Name = 
REMARK  15 active torsions:
REMARK  status: ('A' for Active; 'I' for Inactive)
REMARK    1  A    between atoms: C_1  and  C_2
REMARK    2  A    between atoms: C_2  and  N_3
REMARK    3  A    between atoms: N_3  and  C_4
REMARK    4  A    between atoms: N_3  and  S_30
REMARK    5  A    between atoms: C_4  and  C_5
REMARK    6  A    between atoms: C_6  and  O_29
REMARK    7  A    between atoms: C_7  and  O_28
REMARK    8  A    between atoms: C_8  and  N_10
REMARK    9  A    between atoms: C_12  and  C_20
REMARK   10  A    between atoms: C_18  and  N_19
REMARK   11  A    between atoms: C_21  and  C_22
REMARK   12  A    between atoms: S_30  and  C_33
REMARK   13  A    between atoms: C_36  and  O_41
REMARK   14  A    between atoms: C_37  and  C_39
REMARK   15  A    between atoms: O_41  and  C_42
REMARK                            x       y       z     vdW  Elec       q    Type
REMARK                         _______ _______ _______ _____ _____    ______ ____
ROOT
ATOM      1  C   UNL     1      -3.586  11.369 -33.186  1.00  0.00    +0.168 C 
ATOM      2  C   UNL     1      -2.635  11.642 -34.352  1.00  0.00    +0.177 C 
ATOM      3  C   UNL     1      -3.230  12.894 -34.976  1.00  0.00    +0.195 C 
ATOM      4  C   UNL     1      -3.898  13.600 -33.795  1.00  0.00    +0.252 C 
ATOM      5  O   UNL     1      -4.038  12.657 -32.713  1.00  0.00    -0.347 OA
ENDROOT
BRANCH   4   6
ATOM      6  N   UNL     1      -3.191  14.777 -33.307  1.00  0.00    -0.302 N 
ATOM      7  C   UNL     1      -3.722  16.048 -33.308  1.00  0.00    +0.108 A 
ATOM      8  C   UNL     1      -2.785  16.901 -32.769  1.00  0.00    +0.055 A 
ATOM      9  C   UNL     1      -1.635  16.134 -32.430  1.00  0.00    +0.074 A 
ATOM     10  C   UNL     1      -1.920  14.816 -32.779  1.00  0.00    +0.149 A 
ATOM     11  N   UNL     1      -1.098  13.763 -32.633  1.00  0.00    -0.218 NA
ATOM     12  C   UNL     1       0.077  14.121 -32.090  1.00  0.00    +0.225 A 
ATOM     13  N   UNL     1       0.478  15.345 -31.705  1.00  0.00    -0.220 NA
ATOM     14  C   UNL     1      -0.372  16.378 -31.868  1.00  0.00    +0.130 A 
BRANCH  14  15
ATOM     15  N   UNL     1       0.072  17.614 -31.467  1.00  0.00    -0.342 N 
ATOM     16  H   UNL     1       0.272  18.347 -32.127  1.00  0.00    +0.144 HD
ATOM     17  H   UNL     1       0.200  17.756 -30.476  1.00  0.00    +0.144 HD
ENDBRANCH  14  15
BRANCH   8  18
ATOM     18  C   UNL     1      -2.987  18.302 -32.607  1.00  0.00    -0.059 C 
ATOM     19  C   UNL     1      -3.153  19.484 -32.467  1.00  0.00    -0.059 C 
BRANCH  19  20
ATOM     20  C   UNL     1      -3.346  20.888 -32.297  1.00  0.00    +0.043 A 
ATOM     21  C   UNL     1      -3.711  21.695 -33.371  1.00  0.00    +0.020 A 
ATOM     22  C   UNL     1      -3.893  23.062 -33.168  1.00  0.00    +0.021 A 
ATOM     23  C   UNL     1      -3.702  23.570 -31.892  1.00  0.00    +0.111 A 
ATOM     24  N   UNL     1      -3.348  22.815 -30.829  1.00  0.00    -0.262 NA
ATOM     25  C   UNL     1      -3.175  21.490 -31.057  1.00  0.00    +0.127 A 
ENDBRANCH  19  20
ENDBRANCH   8  18
ENDBRANCH   4   6
BRANCH   3  26
ATOM     26  O   UNL     1      -4.221  12.513 -35.950  1.00  0.00    -0.385 OA
ATOM     27  H   UNL     1      -4.240  11.531 -35.911  1.00  0.00    +0.210 HD
ENDBRANCH   3  26
BRANCH   2  28
ATOM     28  O   UNL     1      -2.596  10.596 -35.322  1.00  0.00    -0.386 OA
ATOM     29  H   UNL     1      -3.431  10.663 -35.837  1.00  0.00    +0.210 HD
ENDBRANCH   2  28
BRANCH   1  30
ATOM     30  C   UNL     1      -2.942  10.625 -32.007  1.00  0.00    +0.143 C 
BRANCH  30  31
ATOM     31  N   UNL     1      -3.614   9.318 -31.753  1.00  0.00    -0.174 NA
BRANCH  31  32
ATOM     32  S   UNL     1      -4.932   9.318 -30.683  1.00  0.00    +0.061 S 
ATOM     33  O   UNL     1      -5.708  10.517 -30.898  1.00  0.00    -0.153 OA
ATOM     34  O   UNL     1      -5.546   8.008 -30.771  1.00  0.00    -0.153 OA
BRANCH  32  35
ATOM     35  C   UNL     1      -4.171   9.457 -29.081  1.00  0.00    +0.107 A 
ATOM     36  C   UNL     1      -2.877   8.974 -28.877  1.00  0.00    +0.032 A 
ATOM     37  C   UNL     1      -2.293   9.060 -27.609  1.00  0.00    +0.049 A 
ATOM     38  C   UNL     1      -3.002   9.614 -26.537  1.00  0.00    +0.138 A 
ATOM     39  C   UNL     1      -4.315  10.075 -26.745  1.00  0.00    +0.095 A 
ATOM     40  C   UNL     1      -4.902   9.987 -28.016  1.00  0.00    +0.051 A 
BRANCH  39  41
ATOM     41  C   UNL     1      -5.082  10.643 -25.671  1.00  0.00    +0.103 C 
ATOM     42  N   UNL     1      -5.726  11.132 -24.839  1.00  0.00    -0.191 NA
ENDBRANCH  39  41
BRANCH  38  43
ATOM     43  O   UNL     1      -2.509   9.744 -25.265  1.00  0.00    -0.494 OA
ATOM     44  C   UNL     1      -2.171   8.557 -24.558  1.00  0.00    +0.277 C 
ENDBRANCH  38  43
ENDBRANCH  32  35
ENDBRANCH  31  32
BRANCH  31  46
ATOM     45  C   UNL     1      -2.471   7.536 -33.021  1.00  0.00    +0.022 C 
ATOM     46  C   UNL     1      -3.699   8.429 -32.940  1.00  0.00    +0.106 C 
ENDBRANCH  31  46
ENDBRANCH  30  31
ENDBRANCH   1  30
TORSDOF 13
ENDMDL
MODEL 5
REMARK VINA RESULT:    -8.415      1.609      2.190
REMARK INTER + INTRA:         -14.885
REMARK INTER:                 -13.874
REMARK INTRA:                  -1.011
REMARK UNBOUND:                -0.813
REMARK  Name = 
REMARK  15 active torsions:
REMARK  status: ('A' for Active; 'I' for Inactive)
REMARK    1  A    between atoms: C_1  and  C_2
REMARK    2  A    between atoms: C_2  and  N_3
REMARK    3  A    between atoms: N_3  and  C_4
REMARK    4  A    between atoms: N_3  and  S_30
REMARK    5  A    between atoms: C_4  and  C_5
REMARK    6  A    between atoms: C_6  and  O_29
REMARK    7  A    between atoms: C_7  and  O_28
REMARK    8  A    between atoms: C_8  and  N_10
REMARK    9  A    between atoms: C_12  and  C_20
REMARK   10  A    between atoms: C_18  and  N_19
REMARK   11  A    between atoms: C_21  and  C_22
REMARK   12  A    between atoms: S_30  and  C_33
REMARK   13  A    between atoms: C_36  and  O_41
REMARK   14  A    between atoms: C_37  and  C_39
REMARK   15  A    between atoms: O_41  and  C_42
REMARK                            x       y       z     vdW  Elec       q    Type
REMARK                         _______ _______ _______ _____ _____    ______ ____
ROOT
ATOM      1  C   UNL     1      -3.933  11.105 -33.431  1.00  0.00    +0.168 C 
ATOM      2  C   UNL     1      -3.216  11.499 -34.723  1.00  0.00    +0.177 C 
ATOM      3  C   UNL     1      -3.898  12.808 -35.090  1.00  0.00    +0.195 C 
ATOM      4  C   UNL     1      -4.317  13.386 -33.738  1.00  0.00    +0.252 C 
ATOM      5  O   UNL     1      -4.265  12.335 -32.752  1.00  0.00    -0.347 OA
ENDROOT
BRANCH   4   6
ATOM      6  N   UNL     1      -3.511  14.508 -33.275  1.00  0.00    -0.302 N 
ATOM      7  C   UNL     1      -3.969  15.805 -33.203  1.00  0.00    +0.108 A 
ATOM      8  C   UNL     1      -2.947  16.589 -32.716  1.00  0.00    +0.055 A 
ATOM      9  C   UNL     1      -1.820  15.752 -32.486  1.00  0.00    +0.074 A 
ATOM     10  C   UNL     1      -2.204  14.463 -32.846  1.00  0.00    +0.149 A 
ATOM     11  N   UNL     1      -1.433  13.362 -32.790  1.00  0.00    -0.218 NA
ATOM     12  C   UNL     1      -0.203  13.640 -32.330  1.00  0.00    +0.225 A 
ATOM     13  N   UNL     1       0.294  14.828 -31.945  1.00  0.00    -0.220 NA
ATOM     14  C   UNL     1      -0.507  15.910 -32.016  1.00  0.00    +0.130 A 
BRANCH  14  15
ATOM     15  N   UNL     1       0.035  17.108 -31.619  1.00  0.00    -0.342 N 
ATOM     16  H   UNL     1      -0.322  17.990 -31.951  1.00  0.00    +0.144 HD
ATOM     17  H   UNL     1       0.817  17.069 -30.983  1.00  0.00    +0.144 HD
ENDBRANCH  14  15
BRANCH   8  18
ATOM     18  C   UNL     1      -3.058  17.994 -32.503  1.00  0.00    -0.059 C 
ATOM     19  C   UNL     1      -3.155  19.178 -32.320  1.00  0.00    -0.059 C 
BRANCH  19  20
ATOM     20  C   UNL     1      -3.277  20.583 -32.099  1.00  0.00    +0.043 A 
ATOM     21  C   UNL     1      -2.991  21.138 -30.854  1.00  0.00    +0.020 A 
ATOM     22  C   UNL     1      -3.117  22.515 -30.675  1.00  0.00    +0.021 A 
ATOM     23  C   UNL     1      -3.526  23.285 -31.752  1.00  0.00    +0.111 A 
ATOM     24  N   UNL     1      -3.811  22.778 -32.972  1.00  0.00    -0.262 NA
ATOM     25  C   UNL     1      -3.682  21.437 -33.116  1.00  0.00    +0.127 A 
ENDBRANCH  19  20
ENDBRANCH   8  18
ENDBRANCH   4   6
BRANCH   3  26
ATOM     26  O   UNL     1      -5.062  12.527 -35.892  1.00  0.00    -0.385 OA
ATOM     27  H   UNL     1      -4.739  12.574 -36.819  1.00  0.00    +0.210 HD
ENDBRANCH   3  26
BRANCH   2  28
ATOM     28  O   UNL     1      -3.380  10.560 -35.785  1.00  0.00    -0.386 OA
ATOM     29  H   UNL     1      -3.607  11.083 -36.586  1.00  0.00    +0.210 HD
ENDBRANCH   2  28
BRANCH   1  30
ATOM     30  C   UNL     1      -3.090  10.244 -32.479  1.00  0.00    +0.143 C 
BRANCH  30  31
ATOM     31  N   UNL     1      -3.848   9.050 -32.004  1.00  0.00    -0.174 NA
BRANCH  31  32
ATOM     32  S   UNL     1      -3.167   8.152 -30.736  1.00  0.00    +0.061 S 
ATOM     33  O   UNL     1      -3.694   6.807 -30.781  1.00  0.00    -0.153 OA
ATOM     34  O   UNL     1      -1.738   8.393 -30.768  1.00  0.00    -0.153 OA
BRANCH  32  35
ATOM     35  C   UNL     1      -3.819   8.929 -29.274  1.00  0.00    +0.107 A 
ATOM     36  C   UNL     1      -3.499  10.258 -28.988  1.00  0.00    +0.032 A 
ATOM     37  C   UNL     1      -3.991  10.857 -27.823  1.00  0.00    +0.049 A 
ATOM     38  C   UNL     1      -4.790  10.129 -26.933  1.00  0.00    +0.138 A 
ATOM     39  C   UNL     1      -5.086   8.783 -27.217  1.00  0.00    +0.095 A 
ATOM     40  C   UNL     1      -4.592   8.181 -28.383  1.00  0.00    +0.051 A 
BRANCH  39  41
ATOM     41  C   UNL     1      -5.895   7.996 -26.328  1.00  0.00    +0.103 C 
ATOM     42  N   UNL     1      -6.507   7.356 -25.579  1.00  0.00    -0.191 NA
ENDBRANCH  39  41
BRANCH  38  43
ATOM     43  O   UNL     1      -5.320  10.634 -25.774  1.00  0.00    -0.494 OA
ATOM     44  C   UNL     1      -4.443  10.826 -24.671  1.00  0.00    +0.277 C 
ENDBRANCH  38  43
ENDBRANCH  32  35
ENDBRANCH  31  32
BRANCH  31  46
ATOM     45  C   UNL     1      -5.951   8.391 -33.114  1.00  0.00    +0.022 C 
ATOM     46  C   UNL     1      -5.324   9.221 -32.005  1.00  0.00    +0.106 C 
ENDBRANCH  31  46
ENDBRANCH  30  31
ENDBRANCH   1  30
TORSDOF 13
ENDMDL
MODEL 6
REMARK VINA RESULT:    -8.315      4.628      7.683
REMARK INTER + INTRA:         -14.719
REMARK INTER:                 -13.809
REMARK INTRA:                  -0.909
REMARK UNBOUND:                -0.813
REMARK  Name = 
REMARK  15 active torsions:
REMARK  status: ('A' for Active; 'I' for Inactive)
REMARK    1  A    between atoms: C_1  and  C_2
REMARK    2  A    between atoms: C_2  and  N_3
REMARK    3  A    between atoms: N_3  and  C_4
REMARK    4  A    between atoms: N_3  and  S_30
REMARK    5  A    between atoms: C_4  and  C_5
REMARK    6  A    between atoms: C_6  and  O_29
REMARK    7  A    between atoms: C_7  and  O_28
REMARK    8  A    between atoms: C_8  and  N_10
REMARK    9  A    between atoms: C_12  and  C_20
REMARK   10  A    between atoms: C_18  and  N_19
REMARK   11  A    between atoms: C_21  and  C_22
REMARK   12  A    between atoms: S_30  and  C_33
REMARK   13  A    between atoms: C_36  and  O_41
REMARK   14  A    between atoms: C_37  and  C_39
REMARK   15  A    between atoms: O_41  and  C_42
REMARK                            x       y       z     vdW  Elec       q    Type
REMARK                         _______ _______ _______ _____ _____    ______ ____
ROOT
ATOM      1  C   UNL     1      -4.280  11.433 -35.433  1.00  0.00    +0.168 C 
ATOM      2  C   UNL     1      -4.419  12.563 -36.452  1.00  0.00    +0.177 C 
ATOM      3  C   UNL     1      -5.234  13.595 -35.690  1.00  0.00    +0.195 C 
ATOM      4  C   UNL     1      -4.847  13.351 -34.231  1.00  0.00    +0.252 C 
ATOM      5  O   UNL     1      -4.219  12.057 -34.131  1.00  0.00    -0.347 OA
ENDROOT
BRANCH   4   6
ATOM      6  N   UNL     1      -3.959  14.352 -33.656  1.00  0.00    -0.302 N 
ATOM      7  C   UNL     1      -4.305  15.673 -33.475  1.00  0.00    +0.108 A 
ATOM      8  C   UNL     1      -3.231  16.319 -32.903  1.00  0.00    +0.055 A 
ATOM      9  C   UNL     1      -2.186  15.369 -32.731  1.00  0.00    +0.074 A 
ATOM     10  C   UNL     1      -2.671  14.155 -33.211  1.00  0.00    +0.149 A 
ATOM     11  N   UNL     1      -2.000  12.990 -33.242  1.00  0.00    -0.218 NA
ATOM     12  C   UNL     1      -0.761  13.118 -32.739  1.00  0.00    +0.225 A 
ATOM     13  N   UNL     1      -0.173  14.219 -32.241  1.00  0.00    -0.220 NA
ATOM     14  C   UNL     1      -0.876  15.369 -32.228  1.00  0.00    +0.130 A 
BRANCH  14  15
ATOM     15  N   UNL     1      -0.243  16.475 -31.716  1.00  0.00    -0.342 N 
ATOM     16  H   UNL     1      -0.730  17.155 -31.155  1.00  0.00    +0.144 HD
ATOM     17  H   UNL     1       0.736  16.585 -31.934  1.00  0.00    +0.144 HD
ENDBRANCH  14  15
BRANCH   8  18
ATOM     18  C   UNL     1      -3.226  17.704 -32.567  1.00  0.00    -0.059 C 
ATOM     19  C   UNL     1      -3.222  18.873 -32.288  1.00  0.00    -0.059 C 
BRANCH  19  20
ATOM     20  C   UNL     1      -3.219  20.263 -31.964  1.00  0.00    +0.043 A 
ATOM     21  C   UNL     1      -2.813  20.703 -30.707  1.00  0.00    +0.020 A 
ATOM     22  C   UNL     1      -2.819  22.069 -30.426  1.00  0.00    +0.021 A 
ATOM     23  C   UNL     1      -3.234  22.944 -31.418  1.00  0.00    +0.111 A 
ATOM     24  N   UNL     1      -3.635  22.550 -32.647  1.00  0.00    -0.262 NA
ATOM     25  C   UNL     1      -3.620  21.217 -32.891  1.00  0.00    +0.127 A 
ENDBRANCH  19  20
ENDBRANCH   8  18
ENDBRANCH   4   6
BRANCH   3  26
ATOM     26  O   UNL     1      -6.637  13.329 -35.883  1.00  0.00    -0.385 OA
ATOM     27  H   UNL     1      -7.053  14.218 -35.926  1.00  0.00    +0.210 HD
ENDBRANCH   3  26
BRANCH   2  28
ATOM     28  O   UNL     1      -5.115  12.187 -37.641  1.00  0.00    -0.386 OA
ATOM     29  H   UNL     1      -5.908  11.683 -37.351  1.00  0.00    +0.210 HD
ENDBRANCH   2  28
BRANCH   1  30
ATOM     30  C   UNL     1      -3.020  10.573 -35.612  1.00  0.00    +0.143 C 
BRANCH  30  31
ATOM     31  N   UNL     1      -3.364   9.139 -35.835  1.00  0.00    -0.174 NA
BRANCH  31  32
ATOM     32  S   UNL     1      -2.080   8.031 -35.888  1.00  0.00    +0.061 S 
ATOM     33  O   UNL     1      -1.117   8.383 -34.869  1.00  0.00    -0.153 OA
ATOM     34  O   UNL     1      -2.667   6.706 -35.932  1.00  0.00    -0.153 OA
BRANCH  32  35
ATOM     35  C   UNL     1      -1.322   8.344 -37.467  1.00  0.00    +0.107 A 
ATOM     36  C   UNL     1      -1.813   7.719 -38.614  1.00  0.00    +0.032 A 
ATOM     37  C   UNL     1      -1.196   7.946 -39.849  1.00  0.00    +0.049 A 
ATOM     38  C   UNL     1      -0.079   8.785 -39.942  1.00  0.00    +0.138 A 
ATOM     39  C   UNL     1       0.425   9.390 -38.776  1.00  0.00    +0.095 A 
ATOM     40  C   UNL     1      -0.191   9.162 -37.537  1.00  0.00    +0.051 A 
BRANCH  39  41
ATOM     41  C   UNL     1       1.574  10.252 -38.823  1.00  0.00    +0.103 C 
ATOM     42  N   UNL     1       2.478  10.980 -38.828  1.00  0.00    -0.191 NA
ENDBRANCH  39  41
BRANCH  38  43
ATOM     43  O   UNL     1       0.584   9.070 -41.107  1.00  0.00    -0.494 OA
ATOM     44  C   UNL     1      -0.120   8.898 -42.331  1.00  0.00    +0.277 C 
ENDBRANCH  38  43
ENDBRANCH  32  35
ENDBRANCH  31  32
BRANCH  31  46
ATOM     45  C   UNL     1      -4.388   8.498 -33.682  1.00  0.00    +0.022 C 
ATOM     46  C   UNL     1      -4.619   8.698 -35.172  1.00  0.00    +0.106 C 
ENDBRANCH  31  46
ENDBRANCH  30  31
ENDBRANCH   1  30
TORSDOF 13
ENDMDL
MODEL 7
REMARK VINA RESULT:    -8.166      3.613      5.032
REMARK INTER + INTRA:         -14.469
REMARK INTER:                 -13.163
REMARK INTRA:                  -1.306
REMARK UNBOUND:                -0.813
REMARK  Name = 
REMARK  15 active torsions:
REMARK  status: ('A' for Active; 'I' for Inactive)
REMARK    1  A    between atoms: C_1  and  C_2
REMARK    2  A    between atoms: C_2  and  N_3
REMARK    3  A    between atoms: N_3  and  C_4
REMARK    4  A    between atoms: N_3  and  S_30
REMARK    5  A    between atoms: C_4  and  C_5
REMARK    6  A    between atoms: C_6  and  O_29
REMARK    7  A    between atoms: C_7  and  O_28
REMARK    8  A    between atoms: C_8  and  N_10
REMARK    9  A    between atoms: C_12  and  C_20
REMARK   10  A    between atoms: C_18  and  N_19
REMARK   11  A    between atoms: C_21  and  C_22
REMARK   12  A    between atoms: S_30  and  C_33
REMARK   13  A    between atoms: C_36  and  O_41
REMARK   14  A    between atoms: C_37  and  C_39
REMARK   15  A    between atoms: O_41  and  C_42
REMARK                            x       y       z     vdW  Elec       q    Type
REMARK                         _______ _______ _______ _____ _____    ______ ____
ROOT
ATOM      1  C   UNL     1      -1.673  12.619 -32.103  1.00  0.00    +0.168 C 
ATOM      2  C   UNL     1      -1.347  12.895 -30.635  1.00  0.00    +0.177 C 
ATOM      3  C   UNL     1       0.120  13.291 -30.693  1.00  0.00    +0.195 C 
ATOM      4  C   UNL     1       0.269  13.913 -32.082  1.00  0.00    +0.252 C 
ATOM      5  O   UNL     1      -0.867  13.531 -32.883  1.00  0.00    -0.347 OA
ENDROOT
BRANCH   4   6
ATOM      6  N   UNL     1       0.387  15.365 -32.093  1.00  0.00    -0.302 N 
ATOM      7  C   UNL     1      -0.689  16.224 -32.097  1.00  0.00    +0.108 A 
ATOM      8  C   UNL     1      -0.204  17.513 -32.099  1.00  0.00    +0.055 A 
ATOM      9  C   UNL     1       1.217  17.449 -32.101  1.00  0.00    +0.074 A 
ATOM     10  C   UNL     1       1.553  16.098 -32.100  1.00  0.00    +0.149 A 
ATOM     11  N   UNL     1       2.799  15.592 -32.108  1.00  0.00    -0.218 NA
ATOM     12  C   UNL     1       3.729  16.561 -32.115  1.00  0.00    +0.225 A 
ATOM     13  N   UNL     1       3.545  17.892 -32.113  1.00  0.00    -0.220 NA
ATOM     14  C   UNL     1       2.282  18.364 -32.106  1.00  0.00    +0.130 A 
BRANCH  14  15
ATOM     15  N   UNL     1       2.132  19.728 -32.107  1.00  0.00    -0.342 N 
ATOM     16  H   UNL     1       2.801  20.338 -31.666  1.00  0.00    +0.144 HD
ATOM     17  H   UNL     1       1.311  20.099 -32.563  1.00  0.00    +0.144 HD
ENDBRANCH  14  15
BRANCH   8  18
ATOM     18  C   UNL     1      -1.033  18.673 -32.099  1.00  0.00    -0.059 C 
ATOM     19  C   UNL     1      -1.730  19.651 -32.095  1.00  0.00    -0.059 C 
BRANCH  19  20
ATOM     20  C   UNL     1      -2.555  20.816 -32.084  1.00  0.00    +0.043 A 
ATOM     21  C   UNL     1      -2.665  21.604 -30.941  1.00  0.00    +0.020 A 
ATOM     22  C   UNL     1      -3.478  22.736 -30.967  1.00  0.00    +0.021 A 
ATOM     23  C   UNL     1      -4.151  23.037 -32.140  1.00  0.00    +0.111 A 
ATOM     24  N   UNL     1      -4.067  22.295 -33.266  1.00  0.00    -0.262 NA
ATOM     25  C   UNL     1      -3.272  21.199 -33.211  1.00  0.00    +0.127 A 
ENDBRANCH  19  20
ENDBRANCH   8  18
ENDBRANCH   4   6
BRANCH   3  26
ATOM     26  O   UNL     1       0.934  12.107 -30.589  1.00  0.00    -0.385 OA
ATOM     27  H   UNL     1       0.393  11.399 -31.004  1.00  0.00    +0.210 HD
ENDBRANCH   3  26
BRANCH   2  28
ATOM     28  O   UNL     1      -1.503  11.760 -29.785  1.00  0.00    -0.386 OA
ATOM     29  H   UNL     1      -1.569  12.106 -28.867  1.00  0.00    +0.210 HD
ENDBRANCH   2  28
BRANCH   1  30
ATOM     30  C   UNL     1      -3.146  12.843 -32.475  1.00  0.00    +0.143 C 
BRANCH  30  31
ATOM     31  N   UNL     1      -3.295  13.235 -33.907  1.00  0.00    -0.174 NA
BRANCH  31  32
ATOM     32  S   UNL     1      -3.263  11.991 -35.061  1.00  0.00    +0.061 S 
ATOM     33  O   UNL     1      -4.123  12.354 -36.163  1.00  0.00    -0.153 OA
ATOM     34  O   UNL     1      -1.869  11.657 -35.282  1.00  0.00    -0.153 OA
BRANCH  32  35
ATOM     35  C   UNL     1      -4.024  10.620 -34.220  1.00  0.00    +0.107 A 
ATOM     36  C   UNL     1      -3.555   9.323 -34.430  1.00  0.00    +0.032 A 
ATOM     37  C   UNL     1      -4.175   8.245 -33.789  1.00  0.00    +0.049 A 
ATOM     38  C   UNL     1      -5.274   8.456 -32.948  1.00  0.00    +0.138 A 
ATOM     39  C   UNL     1      -5.757   9.764 -32.762  1.00  0.00    +0.095 A 
ATOM     40  C   UNL     1      -5.137  10.845 -33.406  1.00  0.00    +0.051 A 
BRANCH  39  41
ATOM     41  C   UNL     1      -6.887  10.026 -31.915  1.00  0.00    +0.103 C 
ATOM     42  N   UNL     1      -7.768  10.259 -31.195  1.00  0.00    -0.191 NA
ENDBRANCH  39  41
BRANCH  38  43
ATOM     43  O   UNL     1      -5.939   7.464 -32.275  1.00  0.00    -0.494 OA
ATOM     44  C   UNL     1      -5.172   6.580 -31.467  1.00  0.00    +0.277 C 
ENDBRANCH  38  43
ENDBRANCH  32  35
ENDBRANCH  31  32
BRANCH  31  46
ATOM     45  C   UNL     1      -3.693  15.642 -33.533  1.00  0.00    +0.022 C 
ATOM     46  C   UNL     1      -4.238  14.359 -34.141  1.00  0.00    +0.106 C 
ENDBRANCH  31  46
ENDBRANCH  30  31
ENDBRANCH   1  30
TORSDOF 13
ENDMDL
MODEL 8
REMARK VINA RESULT:    -8.132      3.969      8.605
REMARK INTER + INTRA:         -14.412
REMARK INTER:                 -10.492
REMARK INTRA:                  -3.919
REMARK UNBOUND:                -0.813
REMARK  Name = 
REMARK  15 active torsions:
REMARK  status: ('A' for Active; 'I' for Inactive)
REMARK    1  A    between atoms: C_1  and  C_2
REMARK    2  A    between atoms: C_2  and  N_3
REMARK    3  A    between atoms: N_3  and  C_4
REMARK    4  A    between atoms: N_3  and  S_30
REMARK    5  A    between atoms: C_4  and  C_5
REMARK    6  A    between atoms: C_6  and  O_29
REMARK    7  A    between atoms: C_7  and  O_28
REMARK    8  A    between atoms: C_8  and  N_10
REMARK    9  A    between atoms: C_12  and  C_20
REMARK   10  A    between atoms: C_18  and  N_19
REMARK   11  A    between atoms: C_21  and  C_22
REMARK   12  A    between atoms: S_30  and  C_33
REMARK   13  A    between atoms: C_36  and  O_41
REMARK   14  A    between atoms: C_37  and  C_39
REMARK   15  A    between atoms: O_41  and  C_42
REMARK                            x       y       z     vdW  Elec       q    Type
REMARK                         _______ _______ _______ _____ _____    ______ ____
ROOT
ATOM      1  C   UNL     1      -1.216  15.325 -32.437  1.00  0.00    +0.168 C 
ATOM      2  C   UNL     1      -2.552  15.765 -31.837  1.00  0.00    +0.177 C 
ATOM      3  C   UNL     1      -3.549  15.326 -32.897  1.00  0.00    +0.195 C 
ATOM      4  C   UNL     1      -2.877  14.114 -33.542  1.00  0.00    +0.252 C 
ATOM      5  O   UNL     1      -1.479  14.119 -33.187  1.00  0.00    -0.347 OA
ENDROOT
BRANCH   4   6
ATOM      6  N   UNL     1      -3.452  12.827 -33.175  1.00  0.00    -0.302 N 
ATOM      7  C   UNL     1      -3.623  12.404 -31.875  1.00  0.00    +0.108 A 
ATOM      8  C   UNL     1      -4.198  11.153 -31.908  1.00  0.00    +0.055 A 
ATOM      9  C   UNL     1      -4.383  10.788 -33.270  1.00  0.00    +0.074 A 
ATOM     10  C   UNL     1      -3.906  11.851 -34.033  1.00  0.00    +0.149 A 
ATOM     11  N   UNL     1      -3.886  11.916 -35.377  1.00  0.00    -0.218 NA
ATOM     12  C   UNL     1      -4.397  10.806 -35.935  1.00  0.00    +0.225 A 
ATOM     13  N   UNL     1      -4.893   9.718 -35.322  1.00  0.00    -0.220 NA
ATOM     14  C   UNL     1      -4.895   9.687 -33.974  1.00  0.00    +0.130 A 
BRANCH  14  15
ATOM     15  N   UNL     1      -5.405   8.558 -33.382  1.00  0.00    -0.342 N 
ATOM     16  H   UNL     1      -5.871   7.842 -33.915  1.00  0.00    +0.144 HD
ATOM     17  H   UNL     1      -5.303   8.479 -32.381  1.00  0.00    +0.144 HD
ENDBRANCH  14  15
BRANCH   8  18
ATOM     18  C   UNL     1      -4.527  10.400 -30.743  1.00  0.00    -0.059 C 
ATOM     19  C   UNL     1      -4.800   9.768 -29.758  1.00  0.00    -0.059 C 
BRANCH  19  20
ATOM     20  C   UNL     1      -5.118   9.019 -28.586  1.00  0.00    +0.043 A 
ATOM     21  C   UNL     1      -5.768   7.791 -28.676  1.00  0.00    +0.020 A 
ATOM     22  C   UNL     1      -6.060   7.084 -27.510  1.00  0.00    +0.021 A 
ATOM     23  C   UNL     1      -5.688   7.637 -26.295  1.00  0.00    +0.111 A 
ATOM     24  N   UNL     1      -5.056   8.825 -26.172  1.00  0.00    -0.262 NA
ATOM     25  C   UNL     1      -4.788   9.490 -27.321  1.00  0.00    +0.127 A 
ENDBRANCH  19  20
ENDBRANCH   8  18
ENDBRANCH   4   6
BRANCH   3  26
ATOM     26  O   UNL     1      -3.705  16.381 -33.866  1.00  0.00    -0.385 OA
ATOM     27  H   UNL     1      -4.566  16.191 -34.300  1.00  0.00    +0.210 HD
ENDBRANCH   3  26
BRANCH   2  28
ATOM     28  O   UNL     1      -2.659  17.174 -31.633  1.00  0.00    -0.386 OA
ATOM     29  H   UNL     1      -3.544  17.331 -31.234  1.00  0.00    +0.210 HD
ENDBRANCH   2  28
BRANCH   1  30
ATOM     30  C   UNL     1      -0.129  15.016 -31.397  1.00  0.00    +0.143 C 
BRANCH  30  31
ATOM     31  N   UNL     1      -0.214  13.605 -30.921  1.00  0.00    -0.174 NA
BRANCH  31  32
ATOM     32  S   UNL     1       0.964  12.522 -31.488  1.00  0.00    +0.061 S 
ATOM     33  O   UNL     1       1.606  13.096 -32.649  1.00  0.00    -0.153 OA
ATOM     34  O   UNL     1       1.742  12.104 -30.338  1.00  0.00    -0.153 OA
BRANCH  32  35
ATOM     35  C   UNL     1       0.015  11.123 -32.043  1.00  0.00    +0.107 A 
ATOM     36  C   UNL     1      -0.511  10.223 -31.114  1.00  0.00    +0.032 A 
ATOM     37  C   UNL     1      -1.232   9.109 -31.556  1.00  0.00    +0.049 A 
ATOM     38  C   UNL     1      -1.419   8.880 -32.924  1.00  0.00    +0.138 A 
ATOM     39  C   UNL     1      -0.863   9.779 -33.854  1.00  0.00    +0.095 A 
ATOM     40  C   UNL     1      -0.138  10.895 -33.412  1.00  0.00    +0.051 A 
BRANCH  39  41
ATOM     41  C   UNL     1      -1.023   9.578 -35.267  1.00  0.00    +0.103 C 
ATOM     42  N   UNL     1      -1.198   9.395 -36.400  1.00  0.00    -0.191 NA
ENDBRANCH  39  41
BRANCH  38  43
ATOM     43  O   UNL     1      -2.115   7.822 -33.447  1.00  0.00    -0.494 OA
ATOM     44  C   UNL     1      -2.238   6.649 -32.652  1.00  0.00    +0.277 C 
ENDBRANCH  38  43
ENDBRANCH  32  35
ENDBRANCH  31  32
BRANCH  31  46
ATOM     45  C   UNL     1       0.116  14.415 -28.614  1.00  0.00    +0.022 C 
ATOM     46  C   UNL     1      -0.653  13.457 -29.510  1.00  0.00    +0.106 C 
ENDBRANCH  31  46
ENDBRANCH  30  31
ENDBRANCH   1  30
TORSDOF 13
ENDMDL
MODEL 9
REMARK VINA RESULT:    -8.072      2.963      5.086
REMARK INTER + INTRA:         -14.312
REMARK INTER:                 -12.644
REMARK INTRA:                  -1.667
REMARK UNBOUND:                -0.813
REMARK  Name = 
REMARK  15 active torsions:
REMARK  status: ('A' for Active; 'I' for Inactive)
REMARK    1  A    between atoms: C_1  and  C_2
REMARK    2  A    between atoms: C_2  and  N_3
REMARK    3  A    between atoms: N_3  and  C_4
REMARK    4  A    between atoms: N_3  and  S_30
REMARK    5  A    between atoms: C_4  and  C_5
REMARK    6  A    between atoms: C_6  and  O_29
REMARK    7  A    between atoms: C_7  and  O_28
REMARK    8  A    between atoms: C_8  and  N_10
REMARK    9  A    between atoms: C_12  and  C_20
REMARK   10  A    between atoms: C_18  and  N_19
REMARK   11  A    between atoms: C_21  and  C_22
REMARK   12  A    between atoms: S_30  and  C_33
REMARK   13  A    between atoms: C_36  and  O_41
REMARK   14  A    between atoms: C_37  and  C_39
REMARK   15  A    between atoms: O_41  and  C_42
REMARK                            x       y       z     vdW  Elec       q    Type
REMARK                         _______ _______ _______ _____ _____    ______ ____
ROOT
ATOM      1  C   UNL     1      -4.267  10.198 -32.473  1.00  0.00    +0.168 C 
ATOM      2  C   UNL     1      -3.549  10.598 -33.763  1.00  0.00    +0.177 C 
ATOM      3  C   UNL     1      -3.870  12.080 -33.872  1.00  0.00    +0.195 C 
ATOM      4  C   UNL     1      -4.032  12.520 -32.417  1.00  0.00    +0.252 C 
ATOM      5  O   UNL     1      -4.209  11.346 -31.598  1.00  0.00    -0.347 OA
ENDROOT
BRANCH   4   6
ATOM      6  N   UNL     1      -2.925  13.303 -31.886  1.00  0.00    -0.302 N 
ATOM      7  C   UNL     1      -2.245  12.989 -30.731  1.00  0.00    +0.108 A 
ATOM      8  C   UNL     1      -1.264  13.937 -30.544  1.00  0.00    +0.055 A 
ATOM      9  C   UNL     1      -1.343  14.870 -31.615  1.00  0.00    +0.074 A 
ATOM     10  C   UNL     1      -2.389  14.448 -32.432  1.00  0.00    +0.149 A 
ATOM     11  N   UNL     1      -2.809  15.054 -33.557  1.00  0.00    -0.218 NA
ATOM     12  C   UNL     1      -2.087  16.153 -33.829  1.00  0.00    +0.225 A 
ATOM     13  N   UNL     1      -1.057  16.666 -33.134  1.00  0.00    -0.220 NA
ATOM     14  C   UNL     1      -0.664  16.033 -32.011  1.00  0.00    +0.130 A 
BRANCH  14  15
ATOM     15  N   UNL     1       0.388  16.587 -31.325  1.00  0.00    -0.342 N 
ATOM     16  H   UNL     1       0.731  16.191 -30.464  1.00  0.00    +0.144 HD
ATOM     17  H   UNL     1       0.802  17.421 -31.715  1.00  0.00    +0.144 HD
ENDBRANCH  14  15
BRANCH   8  18
ATOM     18  C   UNL     1      -0.355  13.933 -29.445  1.00  0.00    -0.059 C 
ATOM     19  C   UNL     1       0.409  13.924 -28.519  1.00  0.00    -0.059 C 
BRANCH  19  20
ATOM     20  C   UNL     1       1.316  13.907 -27.417  1.00  0.00    +0.043 A 
ATOM     21  C   UNL     1       0.855  13.736 -26.114  1.00  0.00    +0.020 A 
ATOM     22  C   UNL     1       1.769  13.721 -25.061  1.00  0.00    +0.021 A 
ATOM     23  C   UNL     1       3.115  13.878 -25.355  1.00  0.00    +0.111 A 
ATOM     24  N   UNL     1       3.595  14.046 -26.607  1.00  0.00    -0.262 NA
ATOM     25  C   UNL     1       2.683  14.059 -27.609  1.00  0.00    +0.127 A 
ENDBRANCH  19  20
ENDBRANCH   8  18
ENDBRANCH   4   6
BRANCH   3  26
ATOM     26  O   UNL     1      -5.113  12.245 -34.582  1.00  0.00    -0.385 OA
ATOM     27  H   UNL     1      -5.413  13.150 -34.345  1.00  0.00    +0.210 HD
ENDBRANCH   3  26
BRANCH   2  28
ATOM     28  O   UNL     1      -4.027   9.918 -34.924  1.00  0.00    -0.386 OA
ATOM     29  H   UNL     1      -4.653  10.532 -35.368  1.00  0.00    +0.210 HD
ENDBRANCH   2  28
BRANCH   1  30
ATOM     30  C   UNL     1      -3.633   9.005 -31.743  1.00  0.00    +0.143 C 
BRANCH  30  31
ATOM     31  N   UNL     1      -3.853   9.087 -30.270  1.00  0.00    -0.174 NA
BRANCH  31  32
ATOM     32  S   UNL     1      -5.345   8.537 -29.676  1.00  0.00    +0.061 S 
ATOM     33  O   UNL     1      -6.332   9.576 -29.858  1.00  0.00    -0.153 OA
ATOM     34  O   UNL     1      -5.553   7.209 -30.222  1.00  0.00    -0.153 OA
BRANCH  32  35
ATOM     35  C   UNL     1      -5.064   8.369 -27.927  1.00  0.00    +0.107 A 
ATOM     36  C   UNL     1      -4.774   7.117 -27.383  1.00  0.00    +0.032 A 
ATOM     37  C   UNL     1      -4.582   6.985 -26.004  1.00  0.00    +0.049 A 
ATOM     38  C   UNL     1      -4.693   8.097 -25.161  1.00  0.00    +0.138 A 
ATOM     39  C   UNL     1      -5.011   9.351 -25.715  1.00  0.00    +0.095 A 
ATOM     40  C   UNL     1      -5.206   9.484 -27.098  1.00  0.00    +0.051 A 
BRANCH  39  41
ATOM     41  C   UNL     1      -5.143  10.518 -24.888  1.00  0.00    +0.103 C 
ATOM     42  N   UNL     1      -5.200  11.471 -24.228  1.00  0.00    -0.191 NA
ENDBRANCH  39  41
BRANCH  38  43
ATOM     43  O   UNL     1      -4.515   8.064 -23.803  1.00  0.00    -0.494 OA
ATOM     44  C   UNL     1      -4.889   6.877 -23.113  1.00  0.00    +0.277 C 
ENDBRANCH  38  43
ENDBRANCH  32  35
ENDBRANCH  31  32
BRANCH  31  46
ATOM     45  C   UNL     1      -2.022  10.100 -28.962  1.00  0.00    +0.022 C 
ATOM     46  C   UNL     1      -2.646   8.803 -29.451  1.00  0.00    +0.106 C 
ENDBRANCH  31  46
ENDBRANCH  30  31
ENDBRANCH   1  30
TORSDOF 13
ENDMDL
