MODEL 1
REMARK VINA RESULT:    -8.930      0.000      0.000
REMARK INTER + INTRA:         -15.812
REMARK INTER:                 -14.934
REMARK INTRA:                  -0.878
REMARK UNBOUND:                -0.878
REMARK  Name = 
REMARK  15 active torsions:
REMARK  status: ('A' for Active; 'I' for Inactive)
REMARK    1  A    between atoms: C_1  and  C_2
REMARK    2  A    between atoms: C_2  and  N_3
REMARK    3  A    between atoms: N_3  and  C_4
REMARK    4  A    between atoms: N_3  and  S_30
REMARK    5  A    between atoms: C_4  and  C_5
REMARK    6  A    between atoms: C_6  and  O_29
REMARK    7  A    between atoms: C_7  and  O_28
REMARK    8  A    between atoms: C_8  and  N_10
REMARK    9  A    between atoms: C_12  and  C_20
REMARK   10  A    between atoms: C_18  and  N_19
REMARK   11  A    between atoms: C_21  and  C_22
REMARK   12  A    between atoms: S_30  and  C_33
REMARK   13  A    between atoms: C_36  and  O_41
REMARK   14  A    between atoms: C_37  and  C_39
REMARK   15  A    between atoms: O_41  and  C_42
REMARK                            x       y       z     vdW  Elec       q    Type
REMARK                         _______ _______ _______ _____ _____    ______ ____
ROOT
ATOM      1  C   UNL     1      -3.666  11.336 -32.950  1.00  0.00    +0.168 C 
ATOM      2  C   UNL     1      -2.701  11.538 -34.118  1.00  0.00    +0.177 C 
ATOM      3  C   UNL     1      -3.267  12.772 -34.802  1.00  0.00    +0.195 C 
ATOM      4  C   UNL     1      -3.929  13.543 -33.659  1.00  0.00    +0.252 C 
ATOM      5  O   UNL     1      -4.096  12.652 -32.538  1.00  0.00    -0.347 OA
ENDROOT
BRANCH   4   6
ATOM      6  N   UNL     1      -3.203  14.726 -33.218  1.00  0.00    -0.302 N 
ATOM      7  C   UNL     1      -3.732  15.998 -33.220  1.00  0.00    +0.108 A 
ATOM      8  C   UNL     1      -2.774  16.858 -32.732  1.00  0.00    +0.055 A 
ATOM      9  C   UNL     1      -1.614  16.095 -32.422  1.00  0.00    +0.074 A 
ATOM     10  C   UNL     1      -1.914  14.772 -32.738  1.00  0.00    +0.149 A 
ATOM     11  N   UNL     1      -1.088  13.719 -32.604  1.00  0.00    -0.218 NA
ATOM     12  C   UNL     1       0.107  14.084 -32.111  1.00  0.00    +0.225 A 
ATOM     13  N   UNL     1       0.524  15.313 -31.762  1.00  0.00    -0.220 NA
ATOM     14  C   UNL     1      -0.330  16.345 -31.911  1.00  0.00    +0.130 A 
BRANCH  14  15
ATOM     15  N   UNL     1       0.130  17.587 -31.548  1.00  0.00    -0.342 N 
ATOM     16  H   UNL     1       0.203  17.866 -30.583  1.00  0.00    +0.144 HD
ATOM     17  H   UNL     1       0.385  18.218 -32.293  1.00  0.00    +0.144 HD
ENDBRANCH  14  15
BRANCH   8  18
ATOM     18  C   UNL     1      -2.968  18.263 -32.586  1.00  0.00    -0.059 C 
ATOM     19  C   UNL     1      -3.133  19.445 -32.458  1.00  0.00    -0.059 C 
BRANCH  19  20
ATOM     20  C   UNL     1      -3.333  20.850 -32.300  1.00  0.00    +0.043 A 
ATOM     21  C   UNL     1      -3.696  21.647 -33.382  1.00  0.00    +0.020 A 
ATOM     22  C   UNL     1      -3.886  23.015 -33.191  1.00  0.00    +0.021 A 
ATOM     23  C   UNL     1      -3.704  23.534 -31.918  1.00  0.00    +0.111 A 
ATOM     24  N   UNL     1      -3.352  22.789 -30.847  1.00  0.00    -0.262 NA
ATOM     25  C   UNL     1      -3.172  21.463 -31.064  1.00  0.00    +0.127 A 
ENDBRANCH  19  20
ENDBRANCH   8  18
ENDBRANCH   4   6
BRANCH   3  26
ATOM     26  O   UNL     1      -4.257  12.367 -35.767  1.00  0.00    -0.385 OA
ATOM     27  H   UNL     1      -3.740  12.158 -36.576  1.00  0.00    +0.210 HD
ENDBRANCH   3  26
BRANCH   2  28
ATOM     28  O   UNL     1      -2.675  10.449 -35.041  1.00  0.00    -0.386 OA
ATOM     29  H   UNL     1      -2.525  10.841 -35.930  1.00  0.00    +0.210 HD
ENDBRANCH   2  28
BRANCH   1  30
ATOM     30  C   UNL     1      -3.046  10.632 -31.733  1.00  0.00    +0.143 C 
BRANCH  30  31
ATOM     31  N   UNL     1      -3.901  10.781 -30.520  1.00  0.00    -0.174 NA
BRANCH  31  32
ATOM     32  S   UNL     1      -4.679   9.388 -29.942  1.00  0.00    +0.061 S 
ATOM     33  O   UNL     1      -6.108   9.594 -29.996  1.00  0.00    -0.153 OA
ATOM     34  O   UNL     1      -4.065   8.255 -30.607  1.00  0.00    -0.153 OA
BRANCH  32  35
ATOM     35  C   UNL     1      -4.214   9.330 -28.226  1.00  0.00    +0.107 A 
ATOM     36  C   UNL     1      -3.171   8.500 -27.812  1.00  0.00    +0.032 A 
ATOM     37  C   UNL     1      -2.827   8.436 -26.457  1.00  0.00    +0.049 A 
ATOM     38  C   UNL     1      -3.531   9.188 -25.509  1.00  0.00    +0.138 A 
ATOM     39  C   UNL     1      -4.598  10.003 -25.933  1.00  0.00    +0.095 A 
ATOM     40  C   UNL     1      -4.945  10.066 -27.290  1.00  0.00    +0.051 A 
BRANCH  39  41
ATOM     41  C   UNL     1      -5.353  10.785 -24.994  1.00  0.00    +0.103 C 
ATOM     42  N   UNL     1      -5.922  11.417 -24.203  1.00  0.00    -0.191 NA
ENDBRANCH  39  41
BRANCH  38  43
ATOM     43  O   UNL     1      -3.261   9.194 -24.166  1.00  0.00    -0.494 OA
ATOM     44  C   UNL     1      -3.595   8.032 -23.416  1.00  0.00    +0.277 C 
ENDBRANCH  38  43
ENDBRANCH  32  35
ENDBRANCH  31  32
BRANCH  31  46
ATOM     45  C   UNL     1      -1.856  11.741 -29.528  1.00  0.00    +0.022 C 
ATOM     46  C   UNL     1      -3.376  11.738 -29.512  1.00  0.00    +0.106 C 
ENDBRANCH  31  46
ENDBRANCH  30  31
ENDBRANCH   1  30
TORSDOF 13
ENDMDL
MODEL 2
REMARK VINA RESULT:    -8.813      1.198      1.526
REMARK INTER + INTRA:         -15.615
REMARK INTER:                 -14.652
REMARK INTRA:                  -0.964
REMARK UNBOUND:                -0.878
REMARK  Name = 
REMARK  15 active torsions:
REMARK  status: ('A' for Active; 'I' for Inactive)
REMARK    1  A    between atoms: C_1  and  C_2
REMARK    2  A    between atoms: C_2  and  N_3
REMARK    3  A    between atoms: N_3  and  C_4
REMARK    4  A    between atoms: N_3  and  S_30
REMARK    5  A    between atoms: C_4  and  C_5
REMARK    6  A    between atoms: C_6  and  O_29
REMARK    7  A    between atoms: C_7  and  O_28
REMARK    8  A    between atoms: C_8  and  N_10
REMARK    9  A    between atoms: C_12  and  C_20
REMARK   10  A    between atoms: C_18  and  N_19
REMARK   11  A    between atoms: C_21  and  C_22
REMARK   12  A    between atoms: S_30  and  C_33
REMARK   13  A    between atoms: C_36  and  O_41
REMARK   14  A    between atoms: C_37  and  C_39
REMARK   15  A    between atoms: O_41  and  C_42
REMARK                            x       y       z     vdW  Elec       q    Type
REMARK                         _______ _______ _______ _____ _____    ______ ____
ROOT
ATOM      1  C   UNL     1      -3.524  11.323 -33.338  1.00  0.00    +0.168 C 
ATOM      2  C   UNL     1      -2.658  11.665 -34.552  1.00  0.00    +0.177 C 
ATOM      3  C   UNL     1      -3.321  12.926 -35.083  1.00  0.00    +0.195 C 
ATOM      4  C   UNL     1      -3.923  13.568 -33.833  1.00  0.00    +0.252 C 
ATOM      5  O   UNL     1      -3.971  12.580 -32.784  1.00  0.00    -0.347 OA
ENDROOT
BRANCH   4   6
ATOM      6  N   UNL     1      -3.212  14.741 -33.343  1.00  0.00    -0.302 N 
ATOM      7  C   UNL     1      -3.737  16.014 -33.343  1.00  0.00    +0.108 A 
ATOM      8  C   UNL     1      -2.795  16.863 -32.804  1.00  0.00    +0.055 A 
ATOM      9  C   UNL     1      -1.649  16.091 -32.466  1.00  0.00    +0.074 A 
ATOM     10  C   UNL     1      -1.940  14.775 -32.816  1.00  0.00    +0.149 A 
ATOM     11  N   UNL     1      -1.122  13.717 -32.671  1.00  0.00    -0.218 NA
ATOM     12  C   UNL     1       0.054  14.070 -32.128  1.00  0.00    +0.225 A 
ATOM     13  N   UNL     1       0.461  15.291 -31.742  1.00  0.00    -0.220 NA
ATOM     14  C   UNL     1      -0.385  16.328 -31.903  1.00  0.00    +0.130 A 
BRANCH  14  15
ATOM     15  N   UNL     1       0.064  17.562 -31.501  1.00  0.00    -0.342 N 
ATOM     16  H   UNL     1      -0.502  18.390 -31.590  1.00  0.00    +0.144 HD
ATOM     17  H   UNL     1       0.997  17.608 -31.119  1.00  0.00    +0.144 HD
ENDBRANCH  14  15
BRANCH   8  18
ATOM     18  C   UNL     1      -2.992  18.265 -32.640  1.00  0.00    -0.059 C 
ATOM     19  C   UNL     1      -3.153  19.447 -32.499  1.00  0.00    -0.059 C 
BRANCH  19  20
ATOM     20  C   UNL     1      -3.339  20.852 -32.327  1.00  0.00    +0.043 A 
ATOM     21  C   UNL     1      -3.708  21.661 -33.399  1.00  0.00    +0.020 A 
ATOM     22  C   UNL     1      -3.884  23.029 -33.195  1.00  0.00    +0.021 A 
ATOM     23  C   UNL     1      -3.684  23.535 -31.920  1.00  0.00    +0.111 A 
ATOM     24  N   UNL     1      -3.325  22.778 -30.859  1.00  0.00    -0.262 NA
ATOM     25  C   UNL     1      -3.159  21.453 -31.088  1.00  0.00    +0.127 A 
ENDBRANCH  19  20
ENDBRANCH   8  18
ENDBRANCH   4   6
BRANCH   3  26
ATOM     26  O   UNL     1      -4.365  12.560 -36.005  1.00  0.00    -0.385 OA
ATOM     27  H   UNL     1      -5.146  13.081 -35.713  1.00  0.00    +0.210 HD
ENDBRANCH   3  26
BRANCH   2  28
ATOM     28  O   UNL     1      -2.661  10.660 -35.565  1.00  0.00    -0.386 OA
ATOM     29  H   UNL     1      -3.094   9.869 -35.171  1.00  0.00    +0.210 HD
ENDBRANCH   2  28
BRANCH   1  30
ATOM     30  C   UNL     1      -2.786  10.548 -32.236  1.00  0.00    +0.143 C 
BRANCH  30  31
ATOM     31  N   UNL     1      -3.618  10.425 -31.004  1.00  0.00    -0.174 NA
BRANCH  31  32
ATOM     32  S   UNL     1      -3.307  11.520 -29.745  1.00  0.00    +0.061 S 
ATOM     33  O   UNL     1      -1.922  11.928 -29.812  1.00  0.00    -0.153 OA
ATOM     34  O   UNL     1      -4.374  12.501 -29.765  1.00  0.00    -0.153 OA
BRANCH  32  35
ATOM     35  C   UNL     1      -3.500  10.534 -28.276  1.00  0.00    +0.107 A 
ATOM     36  C   UNL     1      -3.223   9.166 -28.311  1.00  0.00    +0.032 A 
ATOM     37  C   UNL     1      -3.403   8.390 -27.162  1.00  0.00    +0.049 A 
ATOM     38  C   UNL     1      -3.874   8.971 -25.978  1.00  0.00    +0.138 A 
ATOM     39  C   UNL     1      -4.175  10.345 -25.959  1.00  0.00    +0.095 A 
ATOM     40  C   UNL     1      -3.996  11.125 -27.112  1.00  0.00    +0.051 A 
BRANCH  39  41
ATOM     41  C   UNL     1      -4.667  10.982 -24.769  1.00  0.00    +0.103 C 
ATOM     42  N   UNL     1      -5.083  11.535 -23.837  1.00  0.00    -0.191 NA
ENDBRANCH  39  41
BRANCH  38  43
ATOM     43  O   UNL     1      -4.074   8.291 -24.805  1.00  0.00    -0.494 OA
ATOM     44  C   UNL     1      -5.196   7.421 -24.724  1.00  0.00    +0.277 C 
ENDBRANCH  38  43
ENDBRANCH  32  35
ENDBRANCH  31  32
BRANCH  31  46
ATOM     45  C   UNL     1      -5.164   8.557 -31.463  1.00  0.00    +0.022 C 
ATOM     46  C   UNL     1      -5.036  10.058 -31.254  1.00  0.00    +0.106 C 
ENDBRANCH  31  46
ENDBRANCH  30  31
ENDBRANCH   1  30
TORSDOF 13
ENDMDL
MODEL 3
REMARK VINA RESULT:    -8.702      3.024      4.125
REMARK INTER + INTRA:         -15.430
REMARK INTER:                 -13.832
REMARK INTRA:                  -1.598
REMARK UNBOUND:                -0.878
REMARK  Name = 
REMARK  15 active torsions:
REMARK  status: ('A' for Active; 'I' for Inactive)
REMARK    1  A    between atoms: C_1  and  C_2
REMARK    2  A    between atoms: C_2  and  N_3
REMARK    3  A    between atoms: N_3  and  C_4
REMARK    4  A    between atoms: N_3  and  S_30
REMARK    5  A    between atoms: C_4  and  C_5
REMARK    6  A    between atoms: C_6  and  O_29
REMARK    7  A    between atoms: C_7  and  O_28
REMARK    8  A    between atoms: C_8  and  N_10
REMARK    9  A    between atoms: C_12  and  C_20
REMARK   10  A    between atoms: C_18  and  N_19
REMARK   11  A    between atoms: C_21  and  C_22
REMARK   12  A    between atoms: S_30  and  C_33
REMARK   13  A    between atoms: C_36  and  O_41
REMARK   14  A    between atoms: C_37  and  C_39
REMARK   15  A    between atoms: O_41  and  C_42
REMARK                            x       y       z     vdW  Elec       q    Type
REMARK                         _______ _______ _______ _____ _____    ______ ____
ROOT
ATOM      1  C   UNL     1      -2.731  12.101 -33.593  1.00  0.00    +0.168 C 
ATOM      2  C   UNL     1      -4.016  12.913 -33.755  1.00  0.00    +0.177 C 
ATOM      3  C   UNL     1      -4.126  13.624 -32.416  1.00  0.00    +0.195 C 
ATOM      4  C   UNL     1      -2.672  13.776 -31.970  1.00  0.00    +0.252 C 
ATOM      5  O   UNL     1      -1.854  12.881 -32.750  1.00  0.00    -0.347 OA
ENDROOT
BRANCH   4   6
ATOM      6  N   UNL     1      -2.134  15.126 -32.083  1.00  0.00    -0.302 N 
ATOM      7  C   UNL     1      -2.913  16.259 -32.162  1.00  0.00    +0.108 A 
ATOM      8  C   UNL     1      -2.072  17.347 -32.249  1.00  0.00    +0.055 A 
ATOM      9  C   UNL     1      -0.732  16.870 -32.228  1.00  0.00    +0.074 A 
ATOM     10  C   UNL     1      -0.806  15.483 -32.126  1.00  0.00    +0.149 A 
ATOM     11  N   UNL     1       0.238  14.636 -32.082  1.00  0.00    -0.218 NA
ATOM     12  C   UNL     1       1.410  15.288 -32.146  1.00  0.00    +0.225 A 
ATOM     13  N   UNL     1       1.624  16.611 -32.241  1.00  0.00    -0.220 NA
ATOM     14  C   UNL     1       0.554  17.431 -32.284  1.00  0.00    +0.130 A 
BRANCH  14  15
ATOM     15  N   UNL     1       0.809  18.776 -32.384  1.00  0.00    -0.342 N 
ATOM     16  H   UNL     1       1.114  19.197 -33.247  1.00  0.00    +0.144 HD
ATOM     17  H   UNL     1       0.687  19.329 -31.549  1.00  0.00    +0.144 HD
ENDBRANCH  14  15
BRANCH   8  18
ATOM     18  C   UNL     1      -2.526  18.694 -32.343  1.00  0.00    -0.059 C 
ATOM     19  C   UNL     1      -2.904  19.832 -32.420  1.00  0.00    -0.059 C 
BRANCH  19  20
ATOM     20  C   UNL     1      -3.347  21.186 -32.510  1.00  0.00    +0.043 A 
ATOM     21  C   UNL     1      -3.710  21.740 -33.735  1.00  0.00    +0.020 A 
ATOM     22  C   UNL     1      -4.141  23.065 -33.785  1.00  0.00    +0.021 A 
ATOM     23  C   UNL     1      -4.192  23.787 -32.602  1.00  0.00    +0.111 A 
ATOM     24  N   UNL     1      -3.846  23.280 -31.398  1.00  0.00    -0.262 NA
ATOM     25  C   UNL     1      -3.429  21.991 -31.380  1.00  0.00    +0.127 A 
ENDBRANCH  19  20
ENDBRANCH   8  18
ENDBRANCH   4   6
BRANCH   3  26
ATOM     26  O   UNL     1      -4.843  12.783 -31.491  1.00  0.00    -0.385 OA
ATOM     27  H   UNL     1      -5.710  13.233 -31.371  1.00  0.00    +0.210 HD
ENDBRANCH   3  26
BRANCH   2  28
ATOM     28  O   UNL     1      -5.180  12.116 -33.971  1.00  0.00    -0.386 OA
ATOM     29  H   UNL     1      -4.867  11.266 -34.356  1.00  0.00    +0.210 HD
ENDBRANCH   2  28
BRANCH   1  30
ATOM     30  C   UNL     1      -1.996  11.813 -34.912  1.00  0.00    +0.143 C 
BRANCH  30  31
ATOM     31  N   UNL     1      -1.709  10.358 -35.070  1.00  0.00    -0.174 NA
BRANCH  31  32
ATOM     32  S   UNL     1      -3.002   9.356 -35.521  1.00  0.00    +0.061 S 
ATOM     33  O   UNL     1      -4.150  10.180 -35.822  1.00  0.00    -0.153 OA
ATOM     34  O   UNL     1      -2.486   8.414 -36.496  1.00  0.00    -0.153 OA
BRANCH  32  35
ATOM     35  C   UNL     1      -3.371   8.453 -34.033  1.00  0.00    +0.107 A 
ATOM     36  C   UNL     1      -2.939   7.133 -33.891  1.00  0.00    +0.032 A 
ATOM     37  C   UNL     1      -3.256   6.418 -32.731  1.00  0.00    +0.049 A 
ATOM     38  C   UNL     1      -4.016   7.011 -31.716  1.00  0.00    +0.138 A 
ATOM     39  C   UNL     1      -4.469   8.333 -31.879  1.00  0.00    +0.095 A 
ATOM     40  C   UNL     1      -4.153   9.051 -33.042  1.00  0.00    +0.051 A 
BRANCH  39  41
ATOM     41  C   UNL     1      -5.258   8.978 -30.867  1.00  0.00    +0.103 C 
ATOM     42  N   UNL     1      -5.928   9.459 -30.050  1.00  0.00    -0.191 NA
ENDBRANCH  39  41
BRANCH  38  43
ATOM     43  O   UNL     1      -4.368   6.390 -30.546  1.00  0.00    -0.494 OA
ATOM     44  C   UNL     1      -3.342   6.136 -29.594  1.00  0.00    +0.277 C 
ENDBRANCH  38  43
ENDBRANCH  32  35
ENDBRANCH  31  32
BRANCH  31  46
ATOM     45  C   UNL     1       0.422   9.166 -34.711  1.00  0.00    +0.022 C 
ATOM     46  C   UNL     1      -0.375  10.056 -35.651  1.00  0.00    +0.106 C 
ENDBRANCH  31  46
ENDBRANCH  30  31
ENDBRANCH   1  30
TORSDOF 13
ENDMDL
MODEL 4
REMARK VINA RESULT:    -8.151      3.888      8.532
REMARK INTER + INTRA:         -14.508
REMARK INTER:                 -10.527
REMARK INTRA:                  -3.981
REMARK UNBOUND:                -0.878
REMARK  Name = 
REMARK  15 active torsions:
REMARK  status: ('A' for Active; 'I' for Inactive)
REMARK    1  A    between atoms: C_1  and  C_2
REMARK    2  A    between atoms: C_2  and  N_3
REMARK    3  A    between atoms: N_3  and  C_4
REMARK    4  A    between atoms: N_3  and  S_30
REMARK    5  A    between atoms: C_4  and  C_5
REMARK    6  A    between atoms: C_6  and  O_29
REMARK    7  A    between atoms: C_7  and  O_28
REMARK    8  A    between atoms: C_8  and  N_10
REMARK    9  A    between atoms: C_12  and  C_20
REMARK   10  A    between atoms: C_18  and  N_19
REMARK   11  A    between atoms: C_21  and  C_22
REMARK   12  A    between atoms: S_30  and  C_33
REMARK   13  A    between atoms: C_36  and  O_41
REMARK   14  A    between atoms: C_37  and  C_39
REMARK   15  A    between atoms: O_41  and  C_42
REMARK                            x       y       z     vdW  Elec       q    Type
REMARK                         _______ _______ _______ _____ _____    ______ ____
ROOT
ATOM      1  C   UNL     1      -1.165  15.432 -32.415  1.00  0.00    +0.168 C 
ATOM      2  C   UNL     1      -2.495  15.855 -31.790  1.00  0.00    +0.177 C 
ATOM      3  C   UNL     1      -3.503  15.435 -32.847  1.00  0.00    +0.195 C 
ATOM      4  C   UNL     1      -2.835  14.238 -33.524  1.00  0.00    +0.252 C 
ATOM      5  O   UNL     1      -1.433  14.241 -33.186  1.00  0.00    -0.347 OA
ENDROOT
BRANCH   4   6
ATOM      6  N   UNL     1      -3.402  12.942 -33.176  1.00  0.00    -0.302 N 
ATOM      7  C   UNL     1      -3.579  12.503 -31.883  1.00  0.00    +0.108 A 
ATOM      8  C   UNL     1      -4.143  11.247 -31.933  1.00  0.00    +0.055 A 
ATOM      9  C   UNL     1      -4.315  10.897 -33.302  1.00  0.00    +0.074 A 
ATOM     10  C   UNL     1      -3.841  11.972 -34.049  1.00  0.00    +0.149 A 
ATOM     11  N   UNL     1      -3.812  12.052 -35.391  1.00  0.00    -0.218 NA
ATOM     12  C   UNL     1      -4.310  10.945 -35.965  1.00  0.00    +0.225 A 
ATOM     13  N   UNL     1      -4.800   9.845 -35.369  1.00  0.00    -0.220 NA
ATOM     14  C   UNL     1      -4.812   9.799 -34.022  1.00  0.00    +0.130 A 
BRANCH  14  15
ATOM     15  N   UNL     1      -5.317   8.659 -33.446  1.00  0.00    -0.342 N 
ATOM     16  H   UNL     1      -6.026   8.693 -32.731  1.00  0.00    +0.144 HD
ATOM     17  H   UNL     1      -4.939   7.779 -33.763  1.00  0.00    +0.144 HD
ENDBRANCH  14  15
BRANCH   8  18
ATOM     18  C   UNL     1      -4.474  10.479 -30.780  1.00  0.00    -0.059 C 
ATOM     19  C   UNL     1      -4.750   9.835 -29.804  1.00  0.00    -0.059 C 
BRANCH  19  20
ATOM     20  C   UNL     1      -5.073   9.073 -28.641  1.00  0.00    +0.043 A 
ATOM     21  C   UNL     1      -5.668   7.818 -28.750  1.00  0.00    +0.020 A 
ATOM     22  C   UNL     1      -5.968   7.100 -27.593  1.00  0.00    +0.021 A 
ATOM     23  C   UNL     1      -5.658   7.668 -26.367  1.00  0.00    +0.111 A 
ATOM     24  N   UNL     1      -5.081   8.882 -26.226  1.00  0.00    -0.262 NA
ATOM     25  C   UNL     1      -4.804   9.558 -27.367  1.00  0.00    +0.127 A 
ENDBRANCH  19  20
ENDBRANCH   8  18
ENDBRANCH   4   6
BRANCH   3  26
ATOM     26  O   UNL     1      -3.674  16.508 -33.793  1.00  0.00    -0.385 OA
ATOM     27  H   UNL     1      -2.799  16.955 -33.819  1.00  0.00    +0.210 HD
ENDBRANCH   3  26
BRANCH   2  28
ATOM     28  O   UNL     1      -2.603  17.259 -31.557  1.00  0.00    -0.386 OA
ATOM     29  H   UNL     1      -3.443  17.396 -31.063  1.00  0.00    +0.210 HD
ENDBRANCH   2  28
BRANCH   1  30
ATOM     30  C   UNL     1      -0.064  15.106 -31.395  1.00  0.00    +0.143 C 
BRANCH  30  31
ATOM     31  N   UNL     1      -0.166  13.698 -30.913  1.00  0.00    -0.174 NA
BRANCH  31  32
ATOM     32  S   UNL     1       1.015  12.605 -31.452  1.00  0.00    +0.061 S 
ATOM     33  O   UNL     1       1.667  13.159 -32.617  1.00  0.00    -0.153 OA
ATOM     34  O   UNL     1       1.783  12.207 -30.288  1.00  0.00    -0.153 OA
BRANCH  32  35
ATOM     35  C   UNL     1       0.070  11.197 -31.990  1.00  0.00    +0.107 A 
ATOM     36  C   UNL     1      -0.435  10.295 -31.052  1.00  0.00    +0.032 A 
ATOM     37  C   UNL     1      -1.154   9.174 -31.481  1.00  0.00    +0.049 A 
ATOM     38  C   UNL     1      -1.359   8.941 -32.846  1.00  0.00    +0.138 A 
ATOM     39  C   UNL     1      -0.823   9.842 -33.785  1.00  0.00    +0.095 A 
ATOM     40  C   UNL     1      -0.101  10.965 -33.356  1.00  0.00    +0.051 A 
BRANCH  39  41
ATOM     41  C   UNL     1      -1.002   9.638 -35.196  1.00  0.00    +0.103 C 
ATOM     42  N   UNL     1      -1.096   9.483 -36.343  1.00  0.00    -0.191 NA
ENDBRANCH  39  41
BRANCH  38  43
ATOM     43  O   UNL     1      -2.053   7.876 -33.356  1.00  0.00    -0.494 OA
ATOM     44  C   UNL     1      -2.360   6.800 -32.479  1.00  0.00    +0.277 C 
ENDBRANCH  38  43
ENDBRANCH  32  35
ENDBRANCH  31  32
BRANCH  31  46
ATOM     45  C   UNL     1       0.156  14.487 -28.597  1.00  0.00    +0.022 C 
ATOM     46  C   UNL     1      -0.633  13.561 -29.509  1.00  0.00    +0.106 C 
ENDBRANCH  31  46
ENDBRANCH  30  31
ENDBRANCH   1  30
TORSDOF 13
ENDMDL
MODEL 5
REMARK VINA RESULT:    -8.135      4.132     10.660
REMARK INTER + INTRA:         -14.481
REMARK INTER:                 -13.224
REMARK INTRA:                  -1.257
REMARK UNBOUND:                -0.878
REMARK  Name = 
REMARK  15 active torsions:
REMARK  status: ('A' for Active; 'I' for Inactive)
REMARK    1  A    between atoms: C_1  and  C_2
REMARK    2  A    between atoms: C_2  and  N_3
REMARK    3  A    between atoms: N_3  and  C_4
REMARK    4  A    between atoms: N_3  and  S_30
REMARK    5  A    between atoms: C_4  and  C_5
REMARK    6  A    between atoms: C_6  and  O_29
REMARK    7  A    between atoms: C_7  and  O_28
REMARK    8  A    between atoms: C_8  and  N_10
REMARK    9  A    between atoms: C_12  and  C_20
REMARK   10  A    between atoms: C_18  and  N_19
REMARK   11  A    between atoms: C_21  and  C_22
REMARK   12  A    between atoms: S_30  and  C_33
REMARK   13  A    between atoms: C_36  and  O_41
REMARK   14  A    between atoms: C_37  and  C_39
REMARK   15  A    between atoms: O_41  and  C_42
REMARK                            x       y       z     vdW  Elec       q    Type
REMARK                         _______ _______ _______ _____ _____    ______ ____
ROOT
ATOM      1  C   UNL     1      -1.550  14.626 -31.190  1.00  0.00    +0.168 C 
ATOM      2  C   UNL     1      -0.500  13.538 -30.959  1.00  0.00    +0.177 C 
ATOM      3  C   UNL     1      -1.327  12.404 -30.374  1.00  0.00    +0.195 C 
ATOM      4  C   UNL     1      -2.709  12.610 -30.993  1.00  0.00    +0.252 C 
ATOM      5  O   UNL     1      -2.779  13.948 -31.529  1.00  0.00    -0.347 OA
ENDROOT
BRANCH   4   6
ATOM      6  N   UNL     1      -3.057  11.663 -32.043  1.00  0.00    -0.302 N 
ATOM      7  C   UNL     1      -2.239  11.361 -33.109  1.00  0.00    +0.108 A 
ATOM      8  C   UNL     1      -2.884  10.427 -33.889  1.00  0.00    +0.055 A 
ATOM      9  C   UNL     1      -4.143  10.146 -33.289  1.00  0.00    +0.074 A 
ATOM     10  C   UNL     1      -4.221  10.934 -32.143  1.00  0.00    +0.149 A 
ATOM     11  N   UNL     1      -5.254  10.980 -31.283  1.00  0.00    -0.218 NA
ATOM     12  C   UNL     1      -6.246  10.154 -31.653  1.00  0.00    +0.225 A 
ATOM     13  N   UNL     1      -6.299   9.342 -32.722  1.00  0.00    -0.220 NA
ATOM     14  C   UNL     1      -5.246   9.322 -33.564  1.00  0.00    +0.130 A 
BRANCH  14  15
ATOM     15  N   UNL     1      -5.336   8.484 -34.648  1.00  0.00    -0.342 N 
ATOM     16  H   UNL     1      -5.899   7.649 -34.629  1.00  0.00    +0.144 HD
ATOM     17  H   UNL     1      -4.804   8.735 -35.467  1.00  0.00    +0.144 HD
ENDBRANCH  14  15
BRANCH   8  18
ATOM     18  C   UNL     1      -2.335   9.874 -35.083  1.00  0.00    -0.059 C 
ATOM     19  C   UNL     1      -1.877   9.408 -36.090  1.00  0.00    -0.059 C 
BRANCH  19  20
ATOM     20  C   UNL     1      -1.339   8.852 -37.290  1.00  0.00    +0.043 A 
ATOM     21  C   UNL     1      -2.024   7.862 -37.989  1.00  0.00    +0.020 A 
ATOM     22  C   UNL     1      -1.471   7.344 -39.159  1.00  0.00    +0.021 A 
ATOM     23  C   UNL     1      -0.249   7.839 -39.586  1.00  0.00    +0.111 A 
ATOM     24  N   UNL     1       0.442   8.799 -38.931  1.00  0.00    -0.262 NA
ATOM     25  C   UNL     1      -0.119   9.281 -37.796  1.00  0.00    +0.127 A 
ENDBRANCH  19  20
ENDBRANCH   8  18
ENDBRANCH   4   6
BRANCH   3  26
ATOM     26  O   UNL     1      -1.396  12.558 -28.943  1.00  0.00    -0.385 OA
ATOM     27  H   UNL     1      -2.326  12.333 -28.716  1.00  0.00    +0.210 HD
ENDBRANCH   3  26
BRANCH   2  28
ATOM     28  O   UNL     1       0.524  13.910 -30.037  1.00  0.00    -0.386 OA
ATOM     29  H   UNL     1       1.014  13.085 -29.819  1.00  0.00    +0.210 HD
ENDBRANCH   2  28
BRANCH   1  30
ATOM     30  C   UNL     1      -1.209  15.599 -32.328  1.00  0.00    +0.143 C 
BRANCH  30  31
ATOM     31  N   UNL     1      -1.732  16.969 -32.052  1.00  0.00    -0.174 NA
BRANCH  31  32
ATOM     32  S   UNL     1      -0.696  18.274 -32.372  1.00  0.00    +0.061 S 
ATOM     33  O   UNL     1       0.450  18.188 -31.496  1.00  0.00    -0.153 OA
ATOM     34  O   UNL     1      -0.530  18.339 -33.811  1.00  0.00    -0.153 OA
BRANCH  32  35
ATOM     35  C   UNL     1      -1.644  19.694 -31.868  1.00  0.00    +0.107 A 
ATOM     36  C   UNL     1      -1.662  20.082 -30.528  1.00  0.00    +0.032 A 
ATOM     37  C   UNL     1      -2.431  21.182 -30.132  1.00  0.00    +0.049 A 
ATOM     38  C   UNL     1      -3.196  21.888 -31.068  1.00  0.00    +0.138 A 
ATOM     39  C   UNL     1      -3.192  21.473 -32.413  1.00  0.00    +0.095 A 
ATOM     40  C   UNL     1      -2.423  20.370 -32.810  1.00  0.00    +0.051 A 
BRANCH  39  41
ATOM     41  C   UNL     1      -3.968  22.163 -33.405  1.00  0.00    +0.103 C 
ATOM     42  N   UNL     1      -4.614  22.752 -34.169  1.00  0.00    -0.191 NA
ENDBRANCH  39  41
BRANCH  38  43
ATOM     43  O   UNL     1      -3.972  22.978 -30.773  1.00  0.00    -0.494 OA
ATOM     44  C   UNL     1      -3.316  24.164 -30.341  1.00  0.00    +0.277 C 
ENDBRANCH  38  43
ENDBRANCH  32  35
ENDBRANCH  31  32
BRANCH  31  46
ATOM     45  C   UNL     1      -3.529  16.446 -33.660  1.00  0.00    +0.022 C 
ATOM     46  C   UNL     1      -3.174  17.150 -32.360  1.00  0.00    +0.106 C 
ENDBRANCH  31  46
ENDBRANCH  30  31
ENDBRANCH   1  30
TORSDOF 13
ENDMDL
MODEL 6
REMARK VINA RESULT:    -8.127      2.708      5.077
REMARK INTER + INTRA:         -14.468
REMARK INTER:                 -12.935
REMARK INTRA:                  -1.532
REMARK UNBOUND:                -0.878
REMARK  Name = 
REMARK  15 active torsions:
REMARK  status: ('A' for Active; 'I' for Inactive)
REMARK    1  A    between atoms: C_1  and  C_2
REMARK    2  A    between atoms: C_2  and  N_3
REMARK    3  A    between atoms: N_3  and  C_4
REMARK    4  A    between atoms: N_3  and  S_30
REMARK    5  A    between atoms: C_4  and  C_5
REMARK    6  A    between atoms: C_6  and  O_29
REMARK    7  A    between atoms: C_7  and  O_28
REMARK    8  A    between atoms: C_8  and  N_10
REMARK    9  A    between atoms: C_12  and  C_20
REMARK   10  A    between atoms: C_18  and  N_19
REMARK   11  A    between atoms: C_21  and  C_22
REMARK   12  A    between atoms: S_30  and  C_33
REMARK   13  A    between atoms: C_36  and  O_41
REMARK   14  A    between atoms: C_37  and  C_39
REMARK   15  A    between atoms: O_41  and  C_42
REMARK                            x       y       z     vdW  Elec       q    Type
REMARK                         _______ _______ _______ _____ _____    ______ ____
ROOT
ATOM      1  C   UNL     1      -4.466  11.465 -33.551  1.00  0.00    +0.168 C 
ATOM      2  C   UNL     1      -3.820  12.189 -34.732  1.00  0.00    +0.177 C 
ATOM      3  C   UNL     1      -4.062  13.652 -34.393  1.00  0.00    +0.195 C 
ATOM      4  C   UNL     1      -4.096  13.665 -32.865  1.00  0.00    +0.252 C 
ATOM      5  O   UNL     1      -4.281  12.314 -32.396  1.00  0.00    -0.347 OA
ENDROOT
BRANCH   4   6
ATOM      6  N   UNL     1      -2.910  14.226 -32.231  1.00  0.00    -0.302 N 
ATOM      7  C   UNL     1      -2.330  13.711 -31.093  1.00  0.00    +0.108 A 
ATOM      8  C   UNL     1      -1.232  14.485 -30.788  1.00  0.00    +0.055 A 
ATOM      9  C   UNL     1      -1.134  15.514 -31.765  1.00  0.00    +0.074 A 
ATOM     10  C   UNL     1      -2.195  15.326 -32.648  1.00  0.00    +0.149 A 
ATOM     11  N   UNL     1      -2.477  16.087 -33.720  1.00  0.00    -0.218 NA
ATOM     12  C   UNL     1      -1.595  17.090 -33.864  1.00  0.00    +0.225 A 
ATOM     13  N   UNL     1      -0.532  17.381 -33.095  1.00  0.00    -0.220 NA
ATOM     14  C   UNL     1      -0.280  16.597 -32.028  1.00  0.00    +0.130 A 
BRANCH  14  15
ATOM     15  N   UNL     1       0.812  16.926 -31.263  1.00  0.00    -0.342 N 
ATOM     16  H   UNL     1       1.348  17.762 -31.432  1.00  0.00    +0.144 HD
ATOM     17  H   UNL     1       1.064  16.286 -30.525  1.00  0.00    +0.144 HD
ENDBRANCH  14  15
BRANCH   8  18
ATOM     18  C   UNL     1      -0.379  14.247 -29.671  1.00  0.00    -0.059 C 
ATOM     19  C   UNL     1       0.338  14.051 -28.728  1.00  0.00    -0.059 C 
BRANCH  19  20
ATOM     20  C   UNL     1       1.188  13.825 -27.604  1.00  0.00    +0.043 A 
ATOM     21  C   UNL     1       0.655  13.610 -26.335  1.00  0.00    +0.020 A 
ATOM     22  C   UNL     1       1.515  13.389 -25.260  1.00  0.00    +0.021 A 
ATOM     23  C   UNL     1       2.881  13.391 -25.498  1.00  0.00    +0.111 A 
ATOM     24  N   UNL     1       3.430  13.596 -26.716  1.00  0.00    -0.262 NA
ATOM     25  C   UNL     1       2.570  13.811 -27.741  1.00  0.00    +0.127 A 
ENDBRANCH  19  20
ENDBRANCH   8  18
ENDBRANCH   4   6
BRANCH   3  26
ATOM     26  O   UNL     1      -5.341  14.055 -34.921  1.00  0.00    -0.385 OA
ATOM     27  H   UNL     1      -5.844  13.216 -35.015  1.00  0.00    +0.210 HD
ENDBRANCH   3  26
BRANCH   2  28
ATOM     28  O   UNL     1      -4.417  11.885 -35.992  1.00  0.00    -0.386 OA
ATOM     29  H   UNL     1      -5.206  12.466 -36.074  1.00  0.00    +0.210 HD
ENDBRANCH   2  28
BRANCH   1  30
ATOM     30  C   UNL     1      -3.851  10.092 -33.240  1.00  0.00    +0.143 C 
BRANCH  30  31
ATOM     31  N   UNL     1      -3.988   9.746 -31.796  1.00  0.00    -0.174 NA
BRANCH  31  32
ATOM     32  S   UNL     1      -5.479   9.116 -31.286  1.00  0.00    +0.061 S 
ATOM     33  O   UNL     1      -6.470  10.166 -31.331  1.00  0.00    -0.153 OA
ATOM     34  O   UNL     1      -5.678   7.872 -32.003  1.00  0.00    -0.153 OA
BRANCH  32  35
ATOM     35  C   UNL     1      -5.202   8.719 -29.573  1.00  0.00    +0.107 A 
ATOM     36  C   UNL     1      -5.218   7.388 -29.153  1.00  0.00    +0.032 A 
ATOM     37  C   UNL     1      -5.028   7.082 -27.801  1.00  0.00    +0.049 A 
ATOM     38  C   UNL     1      -4.837   8.102 -26.862  1.00  0.00    +0.138 A 
ATOM     39  C   UNL     1      -4.848   9.443 -27.291  1.00  0.00    +0.095 A 
ATOM     40  C   UNL     1      -5.041   9.751 -28.646  1.00  0.00    +0.051 A 
BRANCH  39  41
ATOM     41  C   UNL     1      -4.664  10.522 -26.361  1.00  0.00    +0.103 C 
ATOM     42  N   UNL     1      -4.561  11.413 -25.624  1.00  0.00    -0.191 NA
ENDBRANCH  39  41
BRANCH  38  43
ATOM     43  O   UNL     1      -4.637   7.897 -25.522  1.00  0.00    -0.494 OA
ATOM     44  C   UNL     1      -5.187   6.721 -24.941  1.00  0.00    +0.277 C 
ENDBRANCH  38  43
ENDBRANCH  32  35
ENDBRANCH  31  32
BRANCH  31  46
ATOM     45  C   UNL     1      -1.935  10.279 -30.534  1.00  0.00    +0.022 C 
ATOM     46  C   UNL     1      -2.760   9.178 -31.181  1.00  0.00    +0.106 C 
ENDBRANCH  31  46
ENDBRANCH  30  31
ENDBRANCH   1  30
TORSDOF 13
ENDMDL
MODEL 7
REMARK VINA RESULT:    -8.076      3.438      9.902
REMARK INTER + INTRA:         -14.383
REMARK INTER:                 -12.767
REMARK INTRA:                  -1.616
REMARK UNBOUND:                -0.878
REMARK  Name = 
REMARK  15 active torsions:
REMARK  status: ('A' for Active; 'I' for Inactive)
REMARK    1  A    between atoms: C_1  and  C_2
REMARK    2  A    between atoms: C_2  and  N_3
REMARK    3  A    between atoms: N_3  and  C_4
REMARK    4  A    between atoms: N_3  and  S_30
REMARK    5  A    between atoms: C_4  and  C_5
REMARK    6  A    between atoms: C_6  and  O_29
REMARK    7  A    between atoms: C_7  and  O_28
REMARK    8  A    between atoms: C_8  and  N_10
REMARK    9  A    between atoms: C_12  and  C_20
REMARK   10  A    between atoms: C_18  and  N_19
REMARK   11  A    between atoms: C_21  and  C_22
REMARK   12  A    between atoms: S_30  and  C_33
REMARK   13  A    between atoms: C_36  and  O_41
REMARK   14  A    between atoms: C_37  and  C_39
REMARK   15  A    between atoms: O_41  and  C_42
REMARK                            x       y       z     vdW  Elec       q    Type
REMARK                         _______ _______ _______ _____ _____    ______ ____
ROOT
ATOM      1  C   UNL     1      -1.786  16.028 -32.710  1.00  0.00    +0.168 C 
ATOM      2  C   UNL     1      -3.274  16.327 -32.529  1.00  0.00    +0.177 C 
ATOM      3  C   UNL     1      -3.931  15.256 -33.384  1.00  0.00    +0.195 C 
ATOM      4  C   UNL     1      -2.937  14.095 -33.332  1.00  0.00    +0.252 C 
ATOM      5  O   UNL     1      -1.669  14.596 -32.860  1.00  0.00    -0.347 OA
ENDROOT
BRANCH   4   6
ATOM      6  N   UNL     1      -3.345  12.977 -32.492  1.00  0.00    -0.302 N 
ATOM      7  C   UNL     1      -3.171  12.937 -31.126  1.00  0.00    +0.108 A 
ATOM      8  C   UNL     1      -3.679  11.742 -30.668  1.00  0.00    +0.055 A 
ATOM      9  C   UNL     1      -4.177  11.017 -31.786  1.00  0.00    +0.074 A 
ATOM     10  C   UNL     1      -3.952  11.813 -32.906  1.00  0.00    +0.149 A 
ATOM     11  N   UNL     1      -4.267  11.500 -34.176  1.00  0.00    -0.218 NA
ATOM     12  C   UNL     1      -4.849  10.293 -34.260  1.00  0.00    +0.225 A 
ATOM     13  N   UNL     1      -5.128   9.431 -33.267  1.00  0.00    -0.220 NA
ATOM     14  C   UNL     1      -4.797   9.777 -32.007  1.00  0.00    +0.130 A 
BRANCH  14  15
ATOM     15  N   UNL     1      -5.093   8.871 -31.019  1.00  0.00    -0.342 N 
ATOM     16  H   UNL     1      -6.035   8.725 -30.696  1.00  0.00    +0.144 HD
ATOM     17  H   UNL     1      -4.320   8.362 -30.617  1.00  0.00    +0.144 HD
ENDBRANCH  14  15
BRANCH   8  18
ATOM     18  C   UNL     1      -3.675  11.353 -29.296  1.00  0.00    -0.059 C 
ATOM     19  C   UNL     1      -3.678  11.023 -28.142  1.00  0.00    -0.059 C 
BRANCH  19  20
ATOM     20  C   UNL     1      -3.687  10.628 -26.770  1.00  0.00    +0.043 A 
ATOM     21  C   UNL     1      -2.684   9.811 -26.254  1.00  0.00    +0.020 A 
ATOM     22  C   UNL     1      -2.723   9.448 -24.908  1.00  0.00    +0.021 A 
ATOM     23  C   UNL     1      -3.768   9.919 -24.129  1.00  0.00    +0.111 A 
ATOM     24  N   UNL     1      -4.756  10.712 -24.598  1.00  0.00    -0.262 NA
ATOM     25  C   UNL     1      -4.694  11.047 -25.909  1.00  0.00    +0.127 A 
ENDBRANCH  19  20
ENDBRANCH   8  18
ENDBRANCH   4   6
BRANCH   3  26
ATOM     26  O   UNL     1      -4.059  15.740 -34.735  1.00  0.00    -0.385 OA
ATOM     27  H   UNL     1      -4.966  16.115 -34.777  1.00  0.00    +0.210 HD
ENDBRANCH   3  26
BRANCH   2  28
ATOM     28  O   UNL     1      -3.664  17.619 -32.995  1.00  0.00    -0.386 OA
ATOM     29  H   UNL     1      -2.861  18.185 -32.951  1.00  0.00    +0.210 HD
ENDBRANCH   2  28
BRANCH   1  30
ATOM     30  C   UNL     1      -0.907  16.458 -31.525  1.00  0.00    +0.143 C 
BRANCH  30  31
ATOM     31  N   UNL     1       0.423  16.952 -31.984  1.00  0.00    -0.174 NA
BRANCH  31  32
ATOM     32  S   UNL     1       0.908  18.488 -31.447  1.00  0.00    +0.061 S 
ATOM     33  O   UNL     1       1.249  18.407 -30.045  1.00  0.00    -0.153 OA
ATOM     34  O   UNL     1       1.861  18.992 -32.417  1.00  0.00    -0.153 OA
BRANCH  32  35
ATOM     35  C   UNL     1      -0.573  19.464 -31.579  1.00  0.00    +0.107 A 
ATOM     36  C   UNL     1      -1.144  19.703 -32.830  1.00  0.00    +0.032 A 
ATOM     37  C   UNL     1      -2.293  20.494 -32.932  1.00  0.00    +0.049 A 
ATOM     38  C   UNL     1      -2.867  21.064 -31.790  1.00  0.00    +0.138 A 
ATOM     39  C   UNL     1      -2.269  20.840 -30.535  1.00  0.00    +0.095 A 
ATOM     40  C   UNL     1      -1.117  20.048 -30.432  1.00  0.00    +0.051 A 
BRANCH  39  41
ATOM     41  C   UNL     1      -2.820  21.412 -29.338  1.00  0.00    +0.103 C 
ATOM     42  N   UNL     1      -3.273  21.825 -28.352  1.00  0.00    -0.191 NA
ENDBRANCH  39  41
BRANCH  38  43
ATOM     43  O   UNL     1      -3.992  21.846 -31.794  1.00  0.00    -0.494 OA
ATOM     44  C   UNL     1      -3.953  23.064 -32.527  1.00  0.00    +0.277 C 
ENDBRANCH  38  43
ENDBRANCH  32  35
ENDBRANCH  31  32
BRANCH  31  46
ATOM     45  C   UNL     1       1.364  14.941 -30.906  1.00  0.00    +0.022 C 
ATOM     46  C   UNL     1       1.469  15.901 -32.080  1.00  0.00    +0.106 C 
ENDBRANCH  31  46
ENDBRANCH  30  31
ENDBRANCH   1  30
TORSDOF 13
ENDMDL
MODEL 8
REMARK VINA RESULT:    -8.033      1.372      2.004
REMARK INTER + INTRA:         -14.312
REMARK INTER:                 -13.141
REMARK INTRA:                  -1.171
REMARK UNBOUND:                -0.878
REMARK  Name = 
REMARK  15 active torsions:
REMARK  status: ('A' for Active; 'I' for Inactive)
REMARK    1  A    between atoms: C_1  and  C_2
REMARK    2  A    between atoms: C_2  and  N_3
REMARK    3  A    between atoms: N_3  and  C_4
REMARK    4  A    between atoms: N_3  and  S_30
REMARK    5  A    between atoms: C_4  and  C_5
REMARK    6  A    between atoms: C_6  and  O_29
REMARK    7  A    between atoms: C_7  and  O_28
REMARK    8  A    between atoms: C_8  and  N_10
REMARK    9  A    between atoms: C_12  and  C_20
REMARK   10  A    between atoms: C_18  and  N_19
REMARK   11  A    between atoms: C_21  and  C_22
REMARK   12  A    between atoms: S_30  and  C_33
REMARK   13  A    between atoms: C_36  and  O_41
REMARK   14  A    between atoms: C_37  and  C_39
REMARK   15  A    between atoms: O_41  and  C_42
REMARK                            x       y       z     vdW  Elec       q    Type
REMARK                         _______ _______ _______ _____ _____    ______ ____
ROOT
ATOM      1  C   UNL     1      -3.638  11.398 -32.984  1.00  0.00    +0.168 C 
ATOM      2  C   UNL     1      -2.604  11.582 -34.095  1.00  0.00    +0.177 C 
ATOM      3  C   UNL     1      -3.122  12.811 -34.825  1.00  0.00    +0.195 C 
ATOM      4  C   UNL     1      -3.847  13.598 -33.733  1.00  0.00    +0.252 C 
ATOM      5  O   UNL     1      -4.085  12.721 -32.613  1.00  0.00    -0.347 OA
ENDROOT
BRANCH   4   6
ATOM      6  N   UNL     1      -3.143  14.783 -33.262  1.00  0.00    -0.302 N 
ATOM      7  C   UNL     1      -3.683  16.050 -33.266  1.00  0.00    +0.108 A 
ATOM      8  C   UNL     1      -2.744  16.914 -32.746  1.00  0.00    +0.055 A 
ATOM      9  C   UNL     1      -1.585  16.158 -32.415  1.00  0.00    +0.074 A 
ATOM     10  C   UNL     1      -1.866  14.836 -32.751  1.00  0.00    +0.149 A 
ATOM     11  N   UNL     1      -1.033  13.789 -32.608  1.00  0.00    -0.218 NA
ATOM     12  C   UNL     1       0.146  14.160 -32.082  1.00  0.00    +0.225 A 
ATOM     13  N   UNL     1       0.543  15.389 -31.711  1.00  0.00    -0.220 NA
ATOM     14  C   UNL     1      -0.317  16.415 -31.871  1.00  0.00    +0.130 A 
BRANCH  14  15
ATOM     15  N   UNL     1       0.123  17.657 -31.485  1.00  0.00    -0.342 N 
ATOM     16  H   UNL     1       0.253  18.405 -32.146  1.00  0.00    +0.144 HD
ATOM     17  H   UNL     1       0.323  17.788 -30.505  1.00  0.00    +0.144 HD
ENDBRANCH  14  15
BRANCH   8  18
ATOM     18  C   UNL     1      -2.955  18.315 -32.591  1.00  0.00    -0.059 C 
ATOM     19  C   UNL     1      -3.127  19.497 -32.460  1.00  0.00    -0.059 C 
BRANCH  19  20
ATOM     20  C   UNL     1      -3.325  20.902 -32.304  1.00  0.00    +0.043 A 
ATOM     21  C   UNL     1      -3.206  21.506 -31.055  1.00  0.00    +0.020 A 
ATOM     22  C   UNL     1      -3.403  22.881 -30.939  1.00  0.00    +0.021 A 
ATOM     23  C   UNL     1      -3.711  23.601 -32.083  1.00  0.00    +0.111 A 
ATOM     24  N   UNL     1      -3.833  23.046 -33.309  1.00  0.00    -0.262 NA
ATOM     25  C   UNL     1      -3.639  21.708 -33.390  1.00  0.00    +0.127 A 
ENDBRANCH  19  20
ENDBRANCH   8  18
ENDBRANCH   4   6
BRANCH   3  26
ATOM     26  O   UNL     1      -4.055  12.399 -35.843  1.00  0.00    -0.385 OA
ATOM     27  H   UNL     1      -4.934  12.452 -35.406  1.00  0.00    +0.210 HD
ENDBRANCH   3  26
BRANCH   2  28
ATOM     28  O   UNL     1      -2.528  10.483 -35.002  1.00  0.00    -0.386 OA
ATOM     29  H   UNL     1      -2.012   9.781 -34.546  1.00  0.00    +0.210 HD
ENDBRANCH   2  28
BRANCH   1  30
ATOM     30  C   UNL     1      -3.094  10.706 -31.725  1.00  0.00    +0.143 C 
BRANCH  30  31
ATOM     31  N   UNL     1      -4.082  10.749 -30.608  1.00  0.00    -0.174 NA
BRANCH  31  32
ATOM     32  S   UNL     1      -4.961   9.332 -30.294  1.00  0.00    +0.061 S 
ATOM     33  O   UNL     1      -6.341   9.683 -30.046  1.00  0.00    -0.153 OA
ATOM     34  O   UNL     1      -4.610   8.379 -31.329  1.00  0.00    -0.153 OA
BRANCH  32  35
ATOM     35  C   UNL     1      -4.278   8.746 -28.759  1.00  0.00    +0.107 A 
ATOM     36  C   UNL     1      -5.001   8.886 -27.573  1.00  0.00    +0.032 A 
ATOM     37  C   UNL     1      -4.448   8.450 -26.365  1.00  0.00    +0.049 A 
ATOM     38  C   UNL     1      -3.167   7.887 -26.332  1.00  0.00    +0.138 A 
ATOM     39  C   UNL     1      -2.434   7.773 -27.528  1.00  0.00    +0.095 A 
ATOM     40  C   UNL     1      -2.987   8.212 -28.740  1.00  0.00    +0.051 A 
BRANCH  39  41
ATOM     41  C   UNL     1      -1.113   7.209 -27.540  1.00  0.00    +0.103 C 
ATOM     42  N   UNL     1      -0.037   6.779 -27.594  1.00  0.00    -0.191 NA
ENDBRANCH  39  41
BRANCH  38  43
ATOM     43  O   UNL     1      -2.549   7.427 -25.198  1.00  0.00    -0.494 OA
ATOM     44  C   UNL     1      -3.243   6.474 -24.403  1.00  0.00    +0.277 C 
ENDBRANCH  38  43
ENDBRANCH  32  35
ENDBRANCH  31  32
BRANCH  31  46
ATOM     45  C   UNL     1      -2.176  11.905 -29.550  1.00  0.00    +0.022 C 
ATOM     46  C   UNL     1      -3.652  11.559 -29.439  1.00  0.00    +0.106 C 
ENDBRANCH  31  46
ENDBRANCH  30  31
ENDBRANCH   1  30
TORSDOF 13
ENDMDL
MODEL 9
REMARK VINA RESULT:    -8.028      3.460      5.148
REMARK INTER + INTRA:         -14.303
REMARK INTER:                 -12.587
REMARK INTRA:                  -1.716
REMARK UNBOUND:                -0.878
REMARK  Name = 
REMARK  15 active torsions:
REMARK  status: ('A' for Active; 'I' for Inactive)
REMARK    1  A    between atoms: C_1  and  C_2
REMARK    2  A    between atoms: C_2  and  N_3
REMARK    3  A    between atoms: N_3  and  C_4
REMARK    4  A    between atoms: N_3  and  S_30
REMARK    5  A    between atoms: C_4  and  C_5
REMARK    6  A    between atoms: C_6  and  O_29
REMARK    7  A    between atoms: C_7  and  O_28
REMARK    8  A    between atoms: C_8  and  N_10
REMARK    9  A    between atoms: C_12  and  C_20
REMARK   10  A    between atoms: C_18  and  N_19
REMARK   11  A    between atoms: C_21  and  C_22
REMARK   12  A    between atoms: S_30  and  C_33
REMARK   13  A    between atoms: C_36  and  O_41
REMARK   14  A    between atoms: C_37  and  C_39
REMARK   15  A    between atoms: O_41  and  C_42
REMARK                            x       y       z     vdW  Elec       q    Type
REMARK                         _______ _______ _______ _____ _____    ______ ____
ROOT
ATOM      1  C   UNL     1       2.954  14.848 -30.189  1.00  0.00    +0.168 C 
ATOM      2  C   UNL     1       3.198  16.354 -30.083  1.00  0.00    +0.177 C 
ATOM      3  C   UNL     1       2.973  16.825 -31.511  1.00  0.00    +0.195 C 
ATOM      4  C   UNL     1       1.962  15.820 -32.064  1.00  0.00    +0.252 C 
ATOM      5  O   UNL     1       1.938  14.666 -31.200  1.00  0.00    -0.347 OA
ENDROOT
BRANCH   4   6
ATOM      6  N   UNL     1       0.605  16.332 -32.206  1.00  0.00    -0.302 N 
ATOM      7  C   UNL     1       0.281  17.670 -32.179  1.00  0.00    +0.108 A 
ATOM      8  C   UNL     1      -1.081  17.781 -32.350  1.00  0.00    +0.055 A 
ATOM      9  C   UNL     1      -1.617  16.469 -32.482  1.00  0.00    +0.074 A 
ATOM     10  C   UNL     1      -0.541  15.590 -32.385  1.00  0.00    +0.149 A 
ATOM     11  N   UNL     1      -0.607  14.248 -32.451  1.00  0.00    -0.218 NA
ATOM     12  C   UNL     1      -1.867  13.821 -32.629  1.00  0.00    +0.225 A 
ATOM     13  N   UNL     1      -2.988  14.554 -32.743  1.00  0.00    -0.220 NA
ATOM     14  C   UNL     1      -2.884  15.896 -32.671  1.00  0.00    +0.130 A 
BRANCH  14  15
ATOM     15  N   UNL     1      -4.049  16.614 -32.787  1.00  0.00    -0.342 N 
ATOM     16  H   UNL     1      -4.147  17.536 -32.396  1.00  0.00    +0.144 HD
ATOM     17  H   UNL     1      -4.813  16.171 -33.276  1.00  0.00    +0.144 HD
ENDBRANCH  14  15
BRANCH   8  18
ATOM     18  C   UNL     1      -1.778  19.024 -32.380  1.00  0.00    -0.059 C 
ATOM     19  C   UNL     1      -2.369  20.069 -32.401  1.00  0.00    -0.059 C 
BRANCH  19  20
ATOM     20  C   UNL     1      -3.075  21.310 -32.421  1.00  0.00    +0.043 A 
ATOM     21  C   UNL     1      -3.311  22.017 -31.245  1.00  0.00    +0.020 A 
ATOM     22  C   UNL     1      -4.002  23.227 -31.302  1.00  0.00    +0.021 A 
ATOM     23  C   UNL     1      -4.430  23.684 -32.539  1.00  0.00    +0.111 A 
ATOM     24  N   UNL     1      -4.218  23.022 -33.698  1.00  0.00    -0.262 NA
ATOM     25  C   UNL     1      -3.547  21.848 -33.611  1.00  0.00    +0.127 A 
ENDBRANCH  19  20
ENDBRANCH   8  18
ENDBRANCH   4   6
BRANCH   3  26
ATOM     26  O   UNL     1       4.212  16.735 -32.240  1.00  0.00    -0.385 OA
ATOM     27  H   UNL     1       4.076  15.988 -32.865  1.00  0.00    +0.210 HD
ENDBRANCH   3  26
BRANCH   2  28
ATOM     28  O   UNL     1       4.520  16.697 -29.669  1.00  0.00    -0.386 OA
ATOM     29  H   UNL     1       5.113  16.484 -30.425  1.00  0.00    +0.210 HD
ENDBRANCH   2  28
BRANCH   1  30
ATOM     30  C   UNL     1       2.459  14.197 -28.889  1.00  0.00    +0.143 C 
BRANCH  30  31
ATOM     31  N   UNL     1       1.103  13.599 -29.060  1.00  0.00    -0.174 NA
BRANCH  31  32
ATOM     32  S   UNL     1       1.020  11.922 -29.312  1.00  0.00    +0.061 S 
ATOM     33  O   UNL     1       1.203  11.652 -30.720  1.00  0.00    -0.153 OA
ATOM     34  O   UNL     1       1.874  11.303 -28.317  1.00  0.00    -0.153 OA
BRANCH  32  35
ATOM     35  C   UNL     1      -0.666  11.522 -28.909  1.00  0.00    +0.107 A 
ATOM     36  C   UNL     1      -0.970  10.928 -27.683  1.00  0.00    +0.032 A 
ATOM     37  C   UNL     1      -2.293  10.588 -27.381  1.00  0.00    +0.049 A 
ATOM     38  C   UNL     1      -3.316  10.826 -28.307  1.00  0.00    +0.138 A 
ATOM     39  C   UNL     1      -2.997  11.401 -29.551  1.00  0.00    +0.095 A 
ATOM     40  C   UNL     1      -1.670  11.740 -29.855  1.00  0.00    +0.051 A 
BRANCH  39  41
ATOM     41  C   UNL     1      -4.013  11.655 -30.534  1.00  0.00    +0.103 C 
ATOM     42  N   UNL     1      -4.865  11.825 -31.305  1.00  0.00    -0.191 NA
ENDBRANCH  39  41
BRANCH  38  43
ATOM     43  O   UNL     1      -4.637  10.532 -28.096  1.00  0.00    -0.494 OA
ATOM     44  C   UNL     1      -5.001   9.165 -27.955  1.00  0.00    +0.277 C 
ENDBRANCH  38  43
ENDBRANCH  32  35
ENDBRANCH  31  32
BRANCH  31  46
ATOM     45  C   UNL     1       0.406  14.079 -26.742  1.00  0.00    +0.022 C 
ATOM     46  C   UNL     1       0.049  14.215 -28.214  1.00  0.00    +0.106 C 
ENDBRANCH  31  46
ENDBRANCH  30  31
ENDBRANCH   1  30
TORSDOF 13
ENDMDL
