REMARK  Name = 
REMARK  12 active torsions:
REMARK  status: ('A' for Active; 'I' for Inactive)
REMARK    1  A    between atoms: C_1  and  S_2
REMARK    2  A    between atoms: S_2  and  C_3
REMARK    3  A    between atoms: S_2  and  C_10
REMARK    4  A    between atoms: C_3  and  C_4
REMARK    5  A    between atoms: C_4  and  CA_5
REMARK    6  A    between atoms: CA_5  and  C_6
REMARK    7  A    between atoms: CA_5  and  N_9
REMARK    8  A    between atoms: C_10  and  C_11
REMARK    9  A    between atoms: C_12  and  O_27
REMARK   10  A    between atoms: C_13  and  O_26
REMARK   11  A    between atoms: C_14  and  N_16
REMARK   12  A    between atoms: C_24  and  N_25
REMARK                            x       y       z     vdW  Elec       q    Type
REMARK                         _______ _______ _______ _____ _____    ______ ____
ROOT
ATOM      1  C   UNL     1      -0.345  -2.001  -0.698  1.00  0.00    +0.161 C 
ATOM      2  C   UNL     1      -1.163  -1.571  -1.916  1.00  0.00    +0.177 C 
ATOM      3  C   UNL     1      -2.094  -0.524  -1.336  1.00  0.00    +0.195 C 
ATOM      4  C   UNL     1      -2.392  -1.122   0.044  1.00  0.00    +0.253 C 
ATOM      5  O   UNL     1      -1.233  -1.873   0.443  1.00  0.00    -0.347 OA
ENDROOT
BRANCH   4   6
ATOM      6  N   UNL     1      -2.692  -0.116   1.047  1.00  0.00    -0.286 N 
ATOM      7  C   UNL     1      -2.044   0.104   2.233  1.00  0.00    +0.203 A 
ATOM      8  N   UNL     1      -2.602   1.077   2.925  1.00  0.00    -0.231 NA
ATOM      9  C   UNL     1      -3.655   1.508   2.147  1.00  0.00    +0.147 A 
ATOM     10  C   UNL     1      -3.727   0.779   0.971  1.00  0.00    +0.167 A 
ATOM     11  N   UNL     1      -4.614   0.928  -0.031  1.00  0.00    -0.216 NA
ATOM     12  C   UNL     1      -5.492   1.915   0.260  1.00  0.00    +0.225 A 
ATOM     13  N   UNL     1      -5.546   2.699   1.357  1.00  0.00    -0.219 NA
ATOM     14  C   UNL     1      -4.621   2.512   2.327  1.00  0.00    +0.147 A 
BRANCH  14  15
ATOM     15  N   UNL     1      -4.668   3.315   3.443  1.00  0.00    -0.341 N 
ATOM     16  H   UNL     1      -3.964   3.192   4.158  1.00  0.00    +0.144 HD
ATOM     17  H   UNL     1      -5.375   4.029   3.494  1.00  0.00    +0.144 HD
ENDBRANCH  14  15
ENDBRANCH   4   6
BRANCH   3  18
ATOM     18  O   UNL     1      -3.246  -0.368  -2.171  1.00  0.00    -0.385 OA
ATOM     19  H   UNL     1      -3.877   0.191  -1.665  1.00  0.00    +0.210 HD
ENDBRANCH   3  18
BRANCH   2  20
ATOM     20  O   UNL     1      -1.949  -2.669  -2.406  1.00  0.00    -0.386 OA
ATOM     21  H   UNL     1      -2.686  -2.251  -2.897  1.00  0.00    +0.210 HD
ENDBRANCH   2  20
BRANCH   1  22
ATOM     22  C   UNL     1       0.875  -1.089  -0.497  1.00  0.00    +0.093 C 
BRANCH  22  24
ATOM     23  C   UNL     1       2.886  -2.895  -0.064  1.00  0.00    +0.073 C 
ATOM     24  S   UNL     1       1.937  -1.668   0.862  1.00  0.00    -0.209 S 
BRANCH  24  25
ATOM     25  C   UNL     1       3.204  -0.344   0.869  1.00  0.00    +0.061 C 
BRANCH  25  26
ATOM     26  C   UNL     1       3.540   0.304  -0.473  1.00  0.00    +0.040 C 
BRANCH  26  27
ATOM     27  CA  UNL     1       4.692   1.306  -0.363  1.00  0.00    +0.166 C 
BRANCH  27  28
ATOM     28  C   UNL     1       6.037   0.514  -0.153  1.00  0.00    +0.372 C 
ATOM     29  O   UNL     1       6.557   0.071  -1.222  1.00  0.00    -0.245 OA
ATOM     30  OXT UNL     1       6.439   0.442   1.040  1.00  0.00    -0.245 OA
ENDBRANCH  27  28
BRANCH  27  31
ATOM     31  N   UNL     1       4.792   2.068  -1.655  1.00  0.00    -0.318 NA
ATOM     32  H1  UNL     1       5.578   2.709  -1.526  1.00  0.00    +0.119 HD
ATOM     33  H2  UNL     1       5.217   1.372  -2.292  1.00  0.00    +0.119 HD
ENDBRANCH  27  31
ENDBRANCH  26  27
ENDBRANCH  25  26
ENDBRANCH  24  25
ENDBRANCH  22  24
ENDBRANCH   1  22
TORSDOF 11
