REMARK  Name = 
REMARK  12 active torsions:
REMARK  status: ('A' for Active; 'I' for Inactive)
REMARK    1  A    between atoms: C_3  and  N_26
REMARK    2  A    between atoms: N_7  and  C_10
REMARK    3  A    between atoms: C_11  and  O_25
REMARK    4  A    between atoms: C_12  and  O_24
REMARK    5  A    between atoms: C_13  and  C_15
REMARK    6  A    between atoms: C_15  and  S_16
REMARK    7  A    between atoms: S_16  and  C_17
REMARK    8  A    between atoms: C_17  and  C_18
REMARK    9  A    between atoms: C_18  and  C_19
REMARK   10  A    between atoms: C_19  and  C_20
REMARK   11  A    between atoms: C_19  and  N_23
REMARK   12  A    between atoms: C_20  and  O_22
REMARK                            x       y       z     vdW  Elec       q    Type
REMARK                         _______ _______ _______ _____ _____    ______ ____
ROOT
ATOM      1  C   UNK     1       1.413   0.687  -0.500  1.00  0.00    +0.253 C 
ATOM      2  C   UNK     1       0.881  -0.549  -1.230  1.00  0.00    +0.195 C 
ATOM      3  C   UNK     1      -0.611  -0.411  -0.973  1.00  0.00    +0.177 C 
ATOM      4  C   UNK     1      -0.651   0.102   0.468  1.00  0.00    +0.162 C 
ATOM      5  O   UNK     1       0.586   0.835   0.680  1.00  0.00    -0.347 OA
ENDROOT
BRANCH   1  12
ATOM      6  C   UNK     1       5.086   0.018  -2.744  1.00  0.00    +0.225 A 
ATOM      7  N   UNK     1       6.252  -0.022  -2.064  1.00  0.00    -0.219 NA
ATOM      8  C   UNK     1       6.220   0.139  -0.722  1.00  0.00    +0.147 A 
ATOM      9  C   UNK     1       4.976   0.342  -0.101  1.00  0.00    +0.147 A 
ATOM     10  C   UNK     1       3.864   0.360  -0.926  1.00  0.00    +0.167 A 
ATOM     11  N   UNK     1       3.837   0.197  -2.261  1.00  0.00    -0.216 NA
ATOM     12  N   UNK     1       2.801   0.568  -0.088  1.00  0.00    -0.286 N 
ATOM     13  C   UNK     1       3.302   0.680   1.183  1.00  0.00    +0.203 A 
ATOM     14  N   UNK     1       4.611   0.535   1.215  1.00  0.00    -0.231 NA
BRANCH   8  15
ATOM     15  N   UNK     1       7.408   0.096  -0.029  1.00  0.00    -0.341 N 
ATOM     16  H   UNK     1       8.259  -0.047  -0.548  1.00  0.00    +0.144 HD
ATOM     17  H   UNK     1       7.398   0.223   0.973  1.00  0.00    +0.144 HD
ENDBRANCH   8  15
ENDBRANCH   1  12
BRANCH   3  18
ATOM     18  O   UNK     1      -1.185   0.596  -1.821  1.00  0.00    -0.386 OA
ATOM     19  H   UNK     1      -2.151   0.579  -1.645  1.00  0.00    +0.210 HD
ENDBRANCH   3  18
BRANCH   2  20
ATOM     20  O   UNK     1       1.181  -0.635  -2.618  1.00  0.00    -0.385 OA
ATOM     21  H   UNK     1       2.125  -0.403  -2.736  1.00  0.00    +0.210 HD
ENDBRANCH   2  20
BRANCH   4  22
ATOM     22  C   UNK     1      -0.751  -0.984   1.544  1.00  0.00    +0.103 C 
BRANCH  22  23
ATOM     23  S   UNK     1      -2.234  -2.046   1.427  1.00  0.00    -0.158 S 
BRANCH  23  24
ATOM     24  C   UNK     1      -3.438  -1.076   2.401  1.00  0.00    +0.071 C 
BRANCH  24  25
ATOM     25  C   UNK     1      -4.030   0.188   1.771  1.00  0.00    +0.040 C 
BRANCH  25  26
ATOM     26  C   UNK     1      -4.818  -0.015   0.466  1.00  0.00    +0.161 C 
BRANCH  26  27
ATOM     27  N   UNK     1      -3.907  -0.275  -0.677  1.00  0.00    -0.318 NA
ATOM     28  H   UNK     1      -4.473  -0.248  -1.532  1.00  0.00    +0.119 HD
ATOM     29  H   UNK     1      -3.579  -1.242  -0.594  1.00  0.00    +0.119 HD
ENDBRANCH  26  27
BRANCH  26  30
ATOM     30  C   UNK     1      -5.707   1.197   0.132  1.00  0.00    +0.322 C 
ATOM     31  O   UNK     1      -5.869   1.691  -0.975  1.00  0.00    -0.249 OA
BRANCH  30  32
ATOM     32  O   UNK     1      -6.417   1.658   1.179  1.00  0.00    -0.480 OA
ATOM     33  H   UNK     1      -6.945   2.391   0.797  1.00  0.00    +0.295 HD
ENDBRANCH  30  32
ENDBRANCH  26  30
ENDBRANCH  25  26
ENDBRANCH  24  25
ENDBRANCH  23  24
ENDBRANCH  22  23
ENDBRANCH   4  22
TORSDOF 12
