REMARK  Name = 
REMARK  18 active torsions:
REMARK  status: ('A' for Active; 'I' for Inactive)
REMARK    1  A    between atoms: C_1  and  C_2
REMARK    2  A    between atoms: C_2  and  C_3
REMARK    3  A    between atoms: C_2  and  N_4
REMARK    4  A    between atoms: N_4  and  C_5
REMARK    5  A    between atoms: N_4  and  C_22
REMARK    6  A    between atoms: C_5  and  C_6
REMARK    7  A    between atoms: C_6  and  C_7
REMARK    8  A    between atoms: C_7  and  N_8
REMARK    9  A    between atoms: N_11  and  C_12
REMARK   10  A    between atoms: C_15  and  C_18
REMARK   11  A    between atoms: C_18  and  C_19
REMARK   12  A    between atoms: C_18  and  C_20
REMARK   13  A    between atoms: C_18  and  C_21
REMARK   14  A    between atoms: C_22  and  C_23
REMARK   15  A    between atoms: C_24  and  O_40
REMARK   16  A    between atoms: C_25  and  O_39
REMARK   17  A    between atoms: C_26  and  N_28
REMARK   18  A    between atoms: C_36  and  N_37
REMARK                            x       y       z     vdW  Elec       q    Type
REMARK                         _______ _______ _______ _____ _____    ______ ____
ROOT
ATOM      1  N   UNL     1      -2.363  -0.844  -1.991  1.00  0.00    -0.297 NA
ENDROOT
BRANCH   1   3
ATOM      2  C   UNL     1      -0.811  -1.993  -3.509  1.00  0.00    +0.024 C 
ATOM      3  C   UNL     1      -1.804  -2.163  -2.353  1.00  0.00    +0.051 C 
ATOM      4  C   UNL     1      -1.173  -2.986  -1.223  1.00  0.00    +0.024 C 
ENDBRANCH   1   3
BRANCH   1   5
ATOM      5  C   UNL     1      -1.766  -0.139  -0.849  1.00  0.00    +0.086 C 
BRANCH   5   6
ATOM      6  C   UNL     1      -0.363   0.409  -1.133  1.00  0.00    +0.034 C 
BRANCH   6   7
ATOM      7  C   UNL     1       0.117   1.286   0.022  1.00  0.00    +0.107 C 
BRANCH   7   8
ATOM      8  N   UNL     1       1.454   1.793  -0.216  1.00  0.00    -0.299 N 
ATOM      9  C   UNL     1       2.577   1.073   0.138  1.00  0.00    +0.304 C 
ATOM     10  O   UNL     1       2.501  -0.024   0.676  1.00  0.00    -0.253 OA
ATOM     11  N   UNL     1       3.727   1.755  -0.192  1.00  0.00    -0.269 N 
ATOM     12  H   UNL     1       1.550   2.670  -0.701  1.00  0.00    +0.150 HD
ATOM     13  H   UNL     1       3.600   2.659  -0.614  1.00  0.00    +0.156 HD
BRANCH  11  14
ATOM     14  C   UNL     1       5.061   1.342  -0.000  1.00  0.00    +0.035 A 
ATOM     15  C   UNL     1       5.431   0.126   0.566  1.00  0.00    +0.023 A 
ATOM     16  C   UNL     1       6.784  -0.212   0.721  1.00  0.00    +0.006 A 
ATOM     17  C   UNL     1       7.810   0.655   0.315  1.00  0.00    -0.042 A 
ATOM     18  C   UNL     1       7.419   1.879  -0.256  1.00  0.00    +0.006 A 
ATOM     19  C   UNL     1       6.069   2.217  -0.411  1.00  0.00    +0.023 A 
BRANCH  17  20
ATOM     20  C   UNL     1       9.301   0.312   0.471  1.00  0.00    -0.013 C 
ATOM     21  C   UNL     1       9.985   1.369   1.365  1.00  0.00    +0.015 C 
ATOM     22  C   UNL     1       9.980   0.303  -0.915  1.00  0.00    +0.015 C 
ATOM     23  C   UNL     1       9.561  -1.068   1.116  1.00  0.00    +0.015 C 
ENDBRANCH  17  20
ENDBRANCH  11  14
ENDBRANCH   7   8
ENDBRANCH   6   7
ENDBRANCH   5   6
ENDBRANCH   1   5
BRANCH   1  24
ATOM     24  C   UNL     1      -3.844  -0.855  -1.927  1.00  0.00    +0.119 C 
BRANCH  24  25
ATOM     25  C   UNL     1      -4.508  -1.672  -0.799  1.00  0.00    +0.166 C 
ATOM     26  C   UNL     1      -6.030  -1.678  -0.927  1.00  0.00    +0.177 C 
ATOM     27  C   UNL     1      -6.473  -2.015   0.490  1.00  0.00    +0.195 C 
ATOM     28  C   UNL     1      -5.356  -1.404   1.351  1.00  0.00    +0.252 C 
ATOM     29  O   UNL     1      -4.236  -1.103   0.496  1.00  0.00    -0.347 OA
BRANCH  28  30
ATOM     30  N   UNL     1      -5.672  -0.208   2.114  1.00  0.00    -0.302 N 
ATOM     31  C   UNL     1      -5.161   0.053   3.368  1.00  0.00    +0.106 A 
ATOM     32  C   UNL     1      -5.652   1.271   3.767  1.00  0.00    +0.048 A 
ATOM     33  C   UNL     1      -6.483   1.789   2.746  1.00  0.00    +0.072 A 
ATOM     34  C   UNL     1      -6.473   0.840   1.727  1.00  0.00    +0.149 A 
ATOM     35  N   UNL     1      -7.136   0.925   0.562  1.00  0.00    -0.218 NA
ATOM     36  C   UNL     1      -7.833   2.068   0.463  1.00  0.00    +0.225 A 
ATOM     37  N   UNL     1      -7.931   3.059   1.365  1.00  0.00    -0.220 NA
ATOM     38  C   UNL     1      -7.256   2.940   2.526  1.00  0.00    +0.130 A 
ATOM     39 BR   UNL     1      -5.270   2.111   5.401  1.00  0.00    -0.048 Br
BRANCH  38  40
ATOM     40  N   UNL     1      -7.378   3.973   3.423  1.00  0.00    -0.343 N 
ATOM     41  H   UNL     1      -7.956   4.753   3.149  1.00  0.00    +0.144 HD
ATOM     42  H   UNL     1      -6.894   3.962   4.306  1.00  0.00    +0.144 HD
ENDBRANCH  38  40
ENDBRANCH  28  30
BRANCH  27  43
ATOM     43  O   UNL     1      -6.491  -3.459   0.611  1.00  0.00    -0.385 OA
ATOM     44  H   UNL     1      -6.917  -3.671   1.463  1.00  0.00    +0.210 HD
ENDBRANCH  27  43
BRANCH  26  45
ATOM     45  O   UNL     1      -6.496  -2.638  -1.871  1.00  0.00    -0.386 OA
ATOM     46  H   UNL     1      -6.556  -3.481  -1.373  1.00  0.00    +0.210 HD
ENDBRANCH  26  45
ENDBRANCH  24  25
ENDBRANCH   1  24
TORSDOF 13
