REMARK  Name = 
REMARK  14 active torsions:
REMARK  status: ('A' for Active; 'I' for Inactive)
REMARK    1  A    between atoms: C_3  and  C_14
REMARK    2  A    between atoms: C_5  and  C_7
REMARK    3  A    between atoms: C_14  and  N_15
REMARK    4  A    between atoms: N_15  and  C_16
REMARK    5  A    between atoms: C_16  and  C_17
REMARK    6  A    between atoms: C_17  and  C_18
REMARK    7  A    between atoms: C_18  and  C_19
REMARK    8  A    between atoms: C_19  and  S_20
REMARK    9  A    between atoms: S_20  and  C_21
REMARK   10  A    between atoms: C_21  and  C_22
REMARK   11  A    between atoms: C_23  and  O_38
REMARK   12  A    between atoms: C_24  and  O_37
REMARK   13  A    between atoms: C_25  and  N_27
REMARK   14  A    between atoms: C_35  and  N_36
REMARK                            x       y       z     vdW  Elec       q    Type
REMARK                         _______ _______ _______ _____ _____    ______ ____
ROOT
ATOM      1  C   UNL     1       2.224  -2.762   2.223  1.00  0.00    +0.103 C 
ENDROOT
BRANCH   1   2
ATOM      2  C   UNL     1       3.700  -2.618   1.834  1.00  0.00    +0.162 C 
ATOM      3  C   UNL     1       4.540  -1.649   2.661  1.00  0.00    +0.177 C 
ATOM      4  C   UNL     1       5.749  -1.449   1.756  1.00  0.00    +0.195 C 
ATOM      5  C   UNL     1       5.160  -1.597   0.345  1.00  0.00    +0.253 C 
ATOM      6  O   UNL     1       3.852  -2.208   0.464  1.00  0.00    -0.347 OA
BRANCH   5   7
ATOM      7  N   UNL     1       5.017  -0.388  -0.436  1.00  0.00    -0.286 N 
ATOM      8  C   UNL     1       5.278  -0.297  -1.781  1.00  0.00    +0.203 A 
ATOM      9  N   UNL     1       5.045   0.909  -2.251  1.00  0.00    -0.231 NA
ATOM     10  C   UNL     1       4.597   1.628  -1.162  1.00  0.00    +0.147 A 
ATOM     11  C   UNL     1       4.578   0.838  -0.023  1.00  0.00    +0.167 A 
ATOM     12  N   UNL     1       4.206   1.213   1.212  1.00  0.00    -0.216 NA
ATOM     13  C   UNL     1       3.817   2.504   1.230  1.00  0.00    +0.225 A 
ATOM     14  N   UNL     1       3.783   3.384   0.207  1.00  0.00    -0.219 NA
ATOM     15  C   UNL     1       4.176   2.961  -1.016  1.00  0.00    +0.147 A 
BRANCH  15  16
ATOM     16  N   UNL     1       4.143   3.857  -2.059  1.00  0.00    -0.341 N 
ATOM     17  H   UNL     1       4.427   3.552  -2.979  1.00  0.00    +0.144 HD
ATOM     18  H   UNL     1       3.820   4.793  -1.875  1.00  0.00    +0.144 HD
ENDBRANCH  15  16
ENDBRANCH   5   7
BRANCH   4  19
ATOM     19  O   UNL     1       6.701  -2.502   2.007  1.00  0.00    -0.385 OA
ATOM     20  H   UNL     1       6.657  -2.651   2.976  1.00  0.00    +0.210 HD
ENDBRANCH   4  19
BRANCH   3  21
ATOM     21  O   UNL     1       4.934  -2.186   3.923  1.00  0.00    -0.386 OA
ATOM     22  H   UNL     1       4.175  -2.069   4.526  1.00  0.00    +0.210 HD
ENDBRANCH   3  21
ENDBRANCH   1   2
BRANCH   1  23
ATOM     23  S   UNL     1       1.305  -1.212   2.547  1.00  0.00    -0.158 S 
BRANCH  23  24
ATOM     24  C   UNL     1       0.981  -0.646   0.841  1.00  0.00    +0.069 C 
BRANCH  24  25
ATOM     25  C   UNL     1      -0.466  -0.873   0.401  1.00  0.00    +0.012 C 
BRANCH  25  26
ATOM     26  C   UNL     1      -0.836  -2.349   0.213  1.00  0.00    +0.016 C 
BRANCH  26  27
ATOM     27  C   UNL     1      -2.266  -2.538  -0.307  1.00  0.00    +0.081 C 
BRANCH  27  28
ATOM     28  N   UNL     1      -2.403  -1.996  -1.660  1.00  0.00    -0.312 NA
ATOM     29  H   UNL     1      -1.770  -2.497  -2.283  1.00  0.00    +0.122 HD
BRANCH  28  30
ATOM     30  C   UNL     1      -3.769  -2.128  -2.176  1.00  0.00    +0.116 C 
BRANCH  30  33
ATOM     31  C   UNL     1      -6.915  -0.866  -0.435  1.00  0.00    +0.001 A 
ATOM     32  C   UNL     1      -5.990  -1.714  -1.042  1.00  0.00    +0.005 A 
ATOM     33  C   UNL     1      -4.766  -1.214  -1.501  1.00  0.00    -0.033 A 
ATOM     34  C   UNL     1      -4.496   0.158  -1.352  1.00  0.00    +0.013 A 
ATOM     35  C   UNL     1      -5.412   1.030  -0.739  1.00  0.00    -0.018 A 
ATOM     36  C   UNL     1      -6.627   0.492  -0.284  1.00  0.00    +0.008 A 
BRANCH  35  37
ATOM     37  C   UNL     1      -5.107   2.461  -0.578  1.00  0.00    -0.018 A 
ATOM     38  C   UNL     1      -4.708   3.244  -1.676  1.00  0.00    +0.010 A 
ATOM     39  C   UNL     1      -4.417   4.604  -1.525  1.00  0.00    +0.020 A 
ATOM     40  C   UNL     1      -4.520   5.197  -0.271  1.00  0.00    +0.041 A 
ATOM     41  C   UNL     1      -4.911   4.444   0.833  1.00  0.00    +0.020 A 
ATOM     42  C   UNL     1      -5.202   3.085   0.678  1.00  0.00    +0.010 A 
ATOM     43 CL   UNL     1      -4.163   6.870  -0.083  1.00  0.00    -0.084 Cl
ENDBRANCH  35  37
ENDBRANCH  30  33
ENDBRANCH  28  30
ENDBRANCH  27  28
ENDBRANCH  26  27
ENDBRANCH  25  26
ENDBRANCH  24  25
ENDBRANCH  23  24
ENDBRANCH   1  23
TORSDOF 14
