REMARK  Name = 
REMARK  13 active torsions:
REMARK  status: ('A' for Active; 'I' for Inactive)
REMARK    1  A    between atoms: C_3  and  N_27
REMARK    2  A    between atoms: N_7  and  C_10
REMARK    3  A    between atoms: C_11  and  O_26
REMARK    4  A    between atoms: C_12  and  O_25
REMARK    5  A    between atoms: C_13  and  C_15
REMARK    6  A    between atoms: C_15  and  C_16
REMARK    7  A    between atoms: C_16  and  C_17
REMARK    8  A    between atoms: C_16  and  N_24
REMARK    9  A    between atoms: C_17  and  C_18
REMARK   10  A    between atoms: C_18  and  CA_19
REMARK   11  A    between atoms: CA_19  and  C_20
REMARK   12  A    between atoms: CA_19  and  N_23
REMARK   13  A    between atoms: C_20  and  OXT_22
REMARK                            x       y       z     vdW  Elec       q    Type
REMARK                         _______ _______ _______ _____ _____    ______ ____
ROOT
ATOM      1  C   UNL     1       2.250  -1.361   0.021  1.00  0.00    +0.253 C 
ATOM      2  C   UNL     1       1.881  -1.057   1.478  1.00  0.00    +0.195 C 
ATOM      3  C   UNL     1       0.674  -1.964   1.659  1.00  0.00    +0.176 C 
ATOM      4  C   UNL     1      -0.039  -1.815   0.314  1.00  0.00    +0.153 C 
ATOM      5  O   UNL     1       1.004  -1.624  -0.672  1.00  0.00    -0.348 OA
ENDROOT
BRANCH   1  12
ATOM      6  C   UNL     1       5.941   0.761   0.937  1.00  0.00    +0.225 A 
ATOM      7  N   UNL     1       6.335   1.748   0.104  1.00  0.00    -0.219 NA
ATOM      8  C   UNL     1       5.561   2.031  -0.969  1.00  0.00    +0.147 A 
ATOM      9  C   UNL     1       4.388   1.284  -1.165  1.00  0.00    +0.147 A 
ATOM     10  C   UNL     1       4.112   0.302  -0.228  1.00  0.00    +0.167 A 
ATOM     11  N   UNL     1       4.838  -0.015   0.859  1.00  0.00    -0.216 NA
ATOM     12  N   UNL     1       2.935  -0.264  -0.642  1.00  0.00    -0.286 N 
ATOM     13  C   UNL     1       2.560   0.372  -1.796  1.00  0.00    +0.203 A 
ATOM     14  N   UNL     1       3.407   1.323  -2.135  1.00  0.00    -0.231 NA
BRANCH   8  15
ATOM     15  N   UNL     1       5.962   3.038  -1.817  1.00  0.00    -0.341 N 
ATOM     16  H   UNL     1       6.821   3.521  -1.614  1.00  0.00    +0.144 HD
ATOM     17  H   UNL     1       5.398   3.251  -2.627  1.00  0.00    +0.144 HD
ENDBRANCH   8  15
ENDBRANCH   1  12
BRANCH   3  18
ATOM     18  O   UNL     1       1.104  -3.326   1.805  1.00  0.00    -0.387 OA
ATOM     19  H   UNL     1       0.340  -3.843   2.114  1.00  0.00    +0.210 HD
ENDBRANCH   3  18
BRANCH   2  20
ATOM     20  O   UNL     1       2.899  -1.312   2.441  1.00  0.00    -0.385 OA
ATOM     21  H   UNL     1       3.725  -0.902   2.108  1.00  0.00    +0.210 HD
ENDBRANCH   2  20
BRANCH   4  22
ATOM     22  C   UNL     1      -0.986  -0.607   0.273  1.00  0.00    +0.052 C 
BRANCH  22  23
ATOM     23  C   UNL     1      -1.768  -0.490  -1.049  1.00  0.00    +0.053 C 
BRANCH  23  24
ATOM     24  N   UNL     1      -2.688  -1.618  -1.186  1.00  0.00    -0.327 NA
ATOM     25  H   UNL     1      -3.457  -1.356  -1.812  1.00  0.00    +0.118 HD
ATOM     26  H   UNL     1      -2.212  -2.391  -1.654  1.00  0.00    +0.118 HD
ENDBRANCH  23  24
BRANCH  23  27
ATOM     27  C   UNL     1      -2.500   0.863  -1.171  1.00  0.00    +0.020 C 
BRANCH  27  28
ATOM     28  C   UNL     1      -3.522   1.226  -0.082  1.00  0.00    +0.031 C 
BRANCH  28  29
ATOM     29  CA  UNL     1      -4.770   0.337   0.012  1.00  0.00    +0.161 C 
BRANCH  29  30
ATOM     30  N   UNL     1      -5.458   0.252  -1.303  1.00  0.00    -0.318 NA
ATOM     31  H1  UNL     1      -5.724   1.197  -1.584  1.00  0.00    +0.119 HD
ATOM     32  H2  UNL     1      -6.354  -0.216  -1.133  1.00  0.00    +0.119 HD
ENDBRANCH  29  30
BRANCH  29  33
ATOM     33  C   UNL     1      -5.720   0.889   1.089  1.00  0.00    +0.322 C 
ATOM     34  O   UNL     1      -5.403   1.376   2.163  1.00  0.00    -0.249 OA
BRANCH  33  35
ATOM     35  OXT UNL     1      -7.029   0.760   0.767  1.00  0.00    -0.480 OA
ATOM     36  HXT UNL     1      -7.496   1.124   1.549  1.00  0.00    +0.295 HD
ENDBRANCH  33  35
ENDBRANCH  29  33
ENDBRANCH  28  29
ENDBRANCH  27  28
ENDBRANCH  23  27
ENDBRANCH  22  23
ENDBRANCH   4  22
TORSDOF 13
