REMARK  Name = 
REMARK  13 active torsions:
REMARK  status: ('A' for Active; 'I' for Inactive)
REMARK    1  A    between atoms: C_2  and  C_27
REMARK    2  A    between atoms: C_4  and  N_26
REMARK    3  A    between atoms: N_9  and  C_10
REMARK    4  A    between atoms: C_11  and  O_25
REMARK    5  A    between atoms: C_12  and  O_24
REMARK    6  A    between atoms: C_13  and  C_15
REMARK    7  A    between atoms: C_15  and  S_16
REMARK    8  A    between atoms: S_16  and  C_17
REMARK    9  A    between atoms: C_17  and  C_18
REMARK   10  A    between atoms: C_18  and  C_19
REMARK   11  A    between atoms: C_19  and  C_20
REMARK   12  A    between atoms: C_19  and  N_23
REMARK   13  A    between atoms: C_20  and  O_22
REMARK                            x       y       z     vdW  Elec       q    Type
REMARK                         _______ _______ _______ _____ _____    ______ ____
ROOT
ATOM      1  C   UNK     1       1.343  -0.818  -0.710  1.00  0.00    +0.252 C 
ATOM      2  C   UNK     1       1.026  -0.284  -2.110  1.00  0.00    +0.195 C 
ATOM      3  C   UNK     1      -0.483  -0.460  -2.151  1.00  0.00    +0.177 C 
ATOM      4  C   UNK     1      -0.899  -0.110  -0.721  1.00  0.00    +0.162 C 
ATOM      5  O   UNK     1       0.208  -0.487   0.127  1.00  0.00    -0.347 OA
ENDROOT
BRANCH   1  14
ATOM      6  C   UNK     1       2.630   0.945   0.572  1.00  0.00    +0.110 A 
ATOM      7  C   UNK     1       3.952   1.134   0.920  1.00  0.00    +0.082 A 
ATOM      8  C   UNK     1       4.702   0.037   0.416  1.00  0.00    +0.076 A 
ATOM      9  C   UNK     1       6.045  -0.371   0.419  1.00  0.00    +0.130 A 
ATOM     10  N   UNK     1       6.370  -1.526  -0.195  1.00  0.00    -0.220 NA
ATOM     11  C   UNK     1       5.392  -2.240  -0.784  1.00  0.00    +0.225 A 
ATOM     12  N   UNK     1       4.082  -1.955  -0.844  1.00  0.00    -0.217 NA
ATOM     13  C   UNK     1       3.796  -0.797  -0.229  1.00  0.00    +0.149 A 
ATOM     14  N   UNK     1       2.546  -0.234  -0.132  1.00  0.00    -0.302 N 
BRANCH   9  15
ATOM     15  N   UNK     1       7.068   0.329   1.010  1.00  0.00    -0.342 N 
ATOM     16  H   UNK     1       6.938   1.201   1.496  1.00  0.00    +0.144 HD
ATOM     17  H   UNK     1       7.989  -0.079   0.937  1.00  0.00    +0.144 HD
ENDBRANCH   9  15
BRANCH   7  18
ATOM     18  C   UNK     1       4.460   2.243   1.661  1.00  0.00    +0.101 C 
ATOM     19  N   UNK     1       4.912   3.131   2.257  1.00  0.00    -0.191 NA
ENDBRANCH   7  18
ENDBRANCH   1  14
BRANCH   3  20
ATOM     20  O   UNK     1      -0.754  -1.845  -2.435  1.00  0.00    -0.386 OA
ATOM     21  H   UNK     1      -1.721  -1.951  -2.501  1.00  0.00    +0.210 HD
ENDBRANCH   3  20
BRANCH   2  22
ATOM     22  O   UNK     1       1.649  -0.993  -3.175  1.00  0.00    -0.385 OA
ATOM     23  H   UNK     1       1.185  -1.854  -3.232  1.00  0.00    +0.210 HD
ENDBRANCH   2  22
BRANCH   4  24
ATOM     24  C   UNK     1      -1.199   1.391  -0.577  1.00  0.00    +0.103 C 
BRANCH  24  25
ATOM     25  S   UNK     1      -1.546   1.983   1.121  1.00  0.00    -0.158 S 
BRANCH  25  26
ATOM     26  C   UNK     1      -2.837   0.820   1.685  1.00  0.00    +0.071 C 
BRANCH  26  27
ATOM     27  C   UNK     1      -4.103   0.864   0.831  1.00  0.00    +0.040 C 
BRANCH  27  28
ATOM     28  C   UNK     1      -5.175  -0.123   1.319  1.00  0.00    +0.161 C 
BRANCH  28  29
ATOM     29  N   UNK     1      -5.664   0.270   2.656  1.00  0.00    -0.318 NA
ATOM     30  H   UNK     1      -6.584  -0.155   2.806  1.00  0.00    +0.119 HD
ATOM     31  H   UNK     1      -5.056  -0.108   3.380  1.00  0.00    +0.119 HD
ENDBRANCH  28  29
BRANCH  28  32
ATOM     32  C   UNK     1      -6.361  -0.203   0.343  1.00  0.00    +0.322 C 
ATOM     33  O   UNK     1      -7.544  -0.261   0.645  1.00  0.00    -0.249 OA
BRANCH  32  34
ATOM     34  O   UNK     1      -5.995  -0.311  -0.951  1.00  0.00    -0.480 OA
ATOM     35  H   UNK     1      -6.855  -0.372  -1.420  1.00  0.00    +0.295 HD
ENDBRANCH  32  34
ENDBRANCH  28  32
ENDBRANCH  27  28
ENDBRANCH  26  27
ENDBRANCH  25  26
ENDBRANCH  24  25
ENDBRANCH   4  24
TORSDOF 13
