REMARK  Name = 
REMARK  15 active torsions:
REMARK  status: ('A' for Active; 'I' for Inactive)
REMARK    1  A    between atoms: C_1  and  C_2
REMARK    2  A    between atoms: C_2  and  N_3
REMARK    3  A    between atoms: N_3  and  C_4
REMARK    4  A    between atoms: N_3  and  S_30
REMARK    5  A    between atoms: C_4  and  C_5
REMARK    6  A    between atoms: C_6  and  O_29
REMARK    7  A    between atoms: C_7  and  O_28
REMARK    8  A    between atoms: C_8  and  N_10
REMARK    9  A    between atoms: C_12  and  C_20
REMARK   10  A    between atoms: C_18  and  N_19
REMARK   11  A    between atoms: C_21  and  C_22
REMARK   12  A    between atoms: S_30  and  C_33
REMARK   13  A    between atoms: C_36  and  O_41
REMARK   14  A    between atoms: C_37  and  C_39
REMARK   15  A    between atoms: O_41  and  C_42
REMARK                            x       y       z     vdW  Elec       q    Type
REMARK                         _______ _______ _______ _____ _____    ______ ____
ROOT
ATOM      1  C   UNL     1      -1.044  -1.408   2.020  1.00  0.00    +0.168 C 
ATOM      2  C   UNL     1      -0.935  -0.087   2.782  1.00  0.00    +0.177 C 
ATOM      3  C   UNL     1       0.490  -0.129   3.310  1.00  0.00    +0.195 C 
ATOM      4  C   UNL     1       1.234  -0.966   2.269  1.00  0.00    +0.252 C 
ATOM      5  O   UNL     1       0.265  -1.676   1.471  1.00  0.00    -0.347 OA
ENDROOT
BRANCH   4   6
ATOM      6  N   UNL     1       2.109  -0.208   1.385  1.00  0.00    -0.302 N 
ATOM      7  C   UNL     1       3.478  -0.353   1.349  1.00  0.00    +0.108 A 
ATOM      8  C   UNL     1       3.972   0.510   0.396  1.00  0.00    +0.055 A 
ATOM      9  C   UNL     1       2.874   1.215  -0.171  1.00  0.00    +0.074 A 
ATOM     10  C   UNL     1       1.729   0.746   0.468  1.00  0.00    +0.149 A 
ATOM     11  N   UNL     1       0.469   1.155   0.236  1.00  0.00    -0.218 NA
ATOM     12  C   UNL     1       0.421   2.100  -0.717  1.00  0.00    +0.225 A 
ATOM     13  N   UNL     1       1.439   2.635  -1.412  1.00  0.00    -0.220 NA
ATOM     14  C   UNL     1       2.689   2.202  -1.152  1.00  0.00    +0.130 A 
BRANCH  14  15
ATOM     15  N   UNL     1       3.705   2.773  -1.878  1.00  0.00    -0.342 N 
ATOM     16  H   UNL     1       4.668   2.511  -1.743  1.00  0.00    +0.144 HD
ATOM     17  H   UNL     1       3.447   3.479  -2.551  1.00  0.00    +0.144 HD
ENDBRANCH  14  15
BRANCH   8  18
ATOM     18  C   UNL     1       5.356   0.633   0.078  1.00  0.00    -0.059 C 
ATOM     19  C   UNL     1       6.521   0.740  -0.194  1.00  0.00    -0.059 C 
BRANCH  19  20
ATOM     20  C   UNL     1       7.904   0.871  -0.523  1.00  0.00    +0.043 A 
ATOM     21  C   UNL     1       8.484   0.072  -1.505  1.00  0.00    +0.020 A 
ATOM     22  C   UNL     1       9.837   0.229  -1.803  1.00  0.00    +0.021 A 
ATOM     23  C   UNL     1      10.559   1.184  -1.104  1.00  0.00    +0.111 A 
ATOM     24  N   UNL     1      10.027   1.975  -0.146  1.00  0.00    -0.262 NA
ATOM     25  C   UNL     1       8.711   1.798   0.124  1.00  0.00    +0.127 A 
ENDBRANCH  19  20
ENDBRANCH   8  18
ENDBRANCH   4   6
BRANCH   3  26
ATOM     26  O   UNL     1       0.503  -0.798   4.586  1.00  0.00    -0.385 OA
ATOM     27  H   UNL     1      -0.359  -0.563   4.996  1.00  0.00    +0.210 HD
ENDBRANCH   3  26
BRANCH   2  28
ATOM     28  O   UNL     1      -1.847   0.027   3.874  1.00  0.00    -0.386 OA
ATOM     29  H   UNL     1      -2.721   0.254   3.484  1.00  0.00    +0.210 HD
ENDBRANCH   2  28
BRANCH   1  30
ATOM     30  C   UNL     1      -2.054  -1.387   0.863  1.00  0.00    +0.143 C 
BRANCH  30  31
ATOM     31  N   UNL     1      -3.401  -1.851   1.305  1.00  0.00    -0.174 NA
BRANCH  31  32
ATOM     32  S   UNL     1      -4.597  -0.667   1.524  1.00  0.00    +0.061 S 
ATOM     33  O   UNL     1      -5.786  -1.296   2.052  1.00  0.00    -0.153 OA
ATOM     34  O   UNL     1      -3.971   0.442   2.217  1.00  0.00    -0.153 OA
BRANCH  32  35
ATOM     35  C   UNL     1      -4.968  -0.135  -0.133  1.00  0.00    +0.107 A 
ATOM     36  C   UNL     1      -4.385   1.027  -0.641  1.00  0.00    +0.032 A 
ATOM     37  C   UNL     1      -4.701   1.457  -1.934  1.00  0.00    +0.049 A 
ATOM     38  C   UNL     1      -5.611   0.739  -2.719  1.00  0.00    +0.138 A 
ATOM     39  C   UNL     1      -6.214  -0.417  -2.189  1.00  0.00    +0.095 A 
ATOM     40  C   UNL     1      -5.899  -0.848  -0.892  1.00  0.00    +0.051 A 
BRANCH  39  41
ATOM     41  C   UNL     1      -7.159  -1.180  -2.956  1.00  0.00    +0.103 C 
ATOM     42  N   UNL     1      -7.918  -1.835  -3.541  1.00  0.00    -0.191 NA
ENDBRANCH  39  41
BRANCH  38  43
ATOM     43  O   UNL     1      -5.975   1.081  -3.995  1.00  0.00    -0.494 OA
ATOM     44  C   UNL     1      -5.408   2.259  -4.555  1.00  0.00    +0.277 C 
ENDBRANCH  38  43
ENDBRANCH  32  35
ENDBRANCH  31  32
BRANCH  31  46
ATOM     45  C   UNL     1      -3.049  -4.293   1.357  1.00  0.00    +0.022 C 
ATOM     46  C   UNL     1      -3.825  -3.150   0.722  1.00  0.00    +0.106 C 
ENDBRANCH  31  46
ENDBRANCH  30  31
ENDBRANCH   1  30
TORSDOF 13
